/*--------------------------------*- C++ -*----------------------------------*\
| =========                 |                                                 |
| \\      /  F ield         | OpenFOAM: The Open Source CFD Toolbox           |
|  \\    /   O peration     | Version:  2512                                  |
|   \\  /    A nd           | Website:  www.openfoam.com                      |
|    \\/     M anipulation  |                                                 |
\*---------------------------------------------------------------------------*/
FoamFile
{
    version     2.0;
    format      ascii;
    arch        "LSB;label=32;scalar=64";
    class       volScalarField;
    location    "0.6";
    object      p;
}
// * * * * * * * * * * * * * * * * * * * * * * * * * * * * * * * * * * * * * //

dimensions      [0 2 -2 0 0 0 0];

internalField   nonuniform List<scalar> 
400
(
4.36671e-06
-0.00583349
-0.0129741
-0.0184252
-0.0204435
-0.0182502
-0.011785
-0.0014933
0.01183
0.0271444
0.0432426
0.058824
0.072582
0.0833135
0.0900586
0.0922725
0.0900308
0.0842505
0.0768816
0.0710603
0.00578869
-0.000220456
-0.00579893
-0.00953369
-0.0105889
-0.0084226
-0.00296101
0.0054807
0.0163062
0.0287112
0.0417453
0.0543776
0.0655748
0.0743958
0.0801048
0.0823004
0.0810634
0.0770452
0.0712716
0.0653076
0.0133454
0.00502511
-0.000996185
-0.00442249
-0.00527284
-0.0032641
0.00160186
0.00902658
0.0185004
0.0293468
0.0407621
0.0518656
0.0617638
0.0696312
0.0748016
0.0768725
0.0758357
0.0720817
0.065809
0.057521
0.0201503
0.00868267
0.00122386
-0.00266878
-0.00372335
-0.00188689
0.00272951
0.00978255
0.018778
0.0290923
0.0399889
0.0506506
0.0602292
0.0679119
0.072999
0.0749971
0.0737607
0.069453
0.0616113
0.0500875
0.0245163
0.00975617
0.000588336
-0.0039858
-0.00530227
-0.0035078
0.00117397
0.00833335
0.0174602
0.0279467
0.0390819
0.0500662
0.0600444
0.0681601
0.0736211
0.0757921
0.0743624
0.0692861
0.059538
0.0445188
0.0251965
0.00712944
-0.00380298
-0.0090549
-0.0105113
-0.00849961
-0.00335685
0.00442881
0.0143121
0.025677
0.037811
0.0498996
0.0610435
0.0702977
0.0767287
0.0795104
0.0781311
0.0723294
0.060556
0.0418672
0.0211169
-0.000286549
-0.0129347
-0.0187056
-0.0200278
-0.0174126
-0.0113175
-0.00231954
0.00898977
0.0219747
0.0359072
0.0499409
0.0631076
0.0743396
0.0825154
0.086562
0.0857112
0.0794421
0.0656418
0.0430435
0.0111721
-0.0136458
-0.027874
-0.0338486
-0.0346
-0.0308548
-0.0232107
-0.0123439
0.00110511
0.0164831
0.0330507
0.0499305
0.0660789
0.080284
0.0911935
0.0974213
0.0978585
0.0916295
0.0759226
0.0490812
-0.00593029
-0.0342973
-0.0498669
-0.0555403
-0.0550847
-0.0495102
-0.0395899
-0.0261107
-0.00975564
0.00882325
0.0288999
0.049591
0.0697933
0.0881484
0.10304
0.112691
0.115536
0.110183
0.0928656
0.0613664
-0.0318101
-0.06391
-0.0804106
-0.0849953
-0.0824123
-0.0740721
-0.0609756
-0.0440325
-0.0239487
-0.00133535
0.0231457
0.0486594
0.074092
0.0979662
0.118387
0.133113
0.13997
0.136805
0.118477
0.0818746
-0.0686058
-0.10464
-0.121333
-0.123574
-0.117505
-0.105118
-0.0877114
-0.0663199
-0.0416327
-0.0141526
0.0156072
0.046953
0.0788532
0.109788
0.137615
0.159571
0.172702
0.173759
0.155561
0.113491
-0.11932
-0.159395
-0.174897
-0.172735
-0.161134
-0.142919
-0.119751
-0.0927702
-0.0625718
-0.0294431
0.00637645
0.0444751
0.0840543
0.123699
0.161127
0.19307
0.215637
0.224049
0.208093
0.16052
-0.188514
-0.232279
-0.243912
-0.23392
-0.213678
-0.187143
-0.156363
-0.122493
-0.0858913
-0.0464662
-0.00400925
0.0415428
0.0898439
0.139827
0.189312
0.234672
0.271037
0.291624
0.281781
0.229617
-0.283818
-0.329333
-0.331794
-0.308247
-0.274691
-0.236428
-0.195755
-0.153602
-0.109833
-0.0637382
-0.0144308
0.0388703
0.0965599
0.158279
0.222371
0.285273
0.341357
0.381521
0.384936
0.33161
-0.419117
-0.459672
-0.442296
-0.395759
-0.342116
-0.287731
-0.234609
-0.182924
-0.131603
-0.0789776
-0.0232051
0.0374856
0.104564
0.178848
0.259867
0.344965
0.428579
0.499628
0.529652
0.485093
-0.62031
-0.636705
-0.578611
-0.494169
-0.411235
-0.335655
-0.267777
-0.205974
-0.147532
-0.0893754
-0.0284157
0.0383618
0.113823
0.20049
0.299992
0.412035
0.533014
0.65171
0.732703
0.722043
-0.935787
-0.878459
-0.741734
-0.597969
-0.474393
-0.372653
-0.288863
-0.217757
-0.153946
-0.0924548
-0.0287062
0.0417104
0.123282
0.22074
0.338947
0.48218
0.652055
0.841405
1.01522
1.09719
-1.47722
-1.20583
-0.920587
-0.691603
-0.517375
-0.387571
-0.290082
-0.21335
-0.148127
-0.0872109
-0.0245647
0.0454802
0.128972
0.233118
0.367157
0.54277
0.771551
1.05949
1.40242
1.73089
-2.54621
-1.62525
-1.04413
-0.711619
-0.496092
-0.352298
-0.254687
-0.183691
-0.126233
-0.0736203
-0.0192539
0.0428374
0.119307
0.21893
0.355013
0.548301
0.826987
1.23619
1.90602
2.93141
-4.37956
-2.04003
-0.972832
-0.563392
-0.357741
-0.239979
-0.170004
-0.123709
-0.0874344
-0.0534856
-0.016654
0.0276443
0.0845682
0.161657
0.272292
0.441999
0.718322
1.22491
2.40647
4.86184
)
;

boundaryField
{
    movingWall
    {
        type            zeroGradient;
    }
    fixedWalls
    {
        type            zeroGradient;
    }
    frontAndBack
    {
        type            empty;
    }
}


// ************************************************************************* //
