/*--------------------------------*- C++ -*----------------------------------*\
| =========                 |                                                 |
| \\      /  F ield         | OpenFOAM: The Open Source CFD Toolbox           |
|  \\    /   O peration     | Version:  2512                                  |
|   \\  /    A nd           | Website:  www.openfoam.com                      |
|    \\/     M anipulation  |                                                 |
\*---------------------------------------------------------------------------*/
FoamFile
{
    version     2.0;
    format      ascii;
    arch        "LSB;label=32;scalar=64";
    class       surfaceScalarField;
    location    "0.6";
    object      phi;
}
// * * * * * * * * * * * * * * * * * * * * * * * * * * * * * * * * * * * * * //

dimensions      [0 3 -1 0 0 0 0];

oriented        oriented;

internalField   nonuniform List<scalar> 
760
(
1.42396e-08
-1.42733e-08
-2.22356e-08
3.64751e-08
-1.14277e-07
9.20418e-08
-2.45495e-07
1.31218e-07
-3.96102e-07
1.50607e-07
-5.47374e-07
1.51273e-07
-6.83202e-07
1.35828e-07
-7.90677e-07
1.07474e-07
-8.60222e-07
6.95446e-08
-8.85655e-07
2.54329e-08
-8.64331e-07
-2.13235e-08
-7.97396e-07
-6.69343e-08
-6.90088e-07
-1.07307e-07
-5.51972e-07
-1.38116e-07
-3.96939e-07
-1.55033e-07
-2.42746e-07
-1.54194e-07
-1.09741e-07
-1.33005e-07
-1.84442e-08
-9.12964e-08
1.5706e-08
-3.41499e-08
1.57064e-08
-3.42428e-08
1.99696e-08
-1.80391e-07
1.82623e-07
-4.34022e-07
3.45673e-07
-7.64465e-07
4.61661e-07
-1.13224e-06
5.18377e-07
-1.49726e-06
5.16296e-07
-1.82334e-06
4.61913e-07
-2.08053e-06
3.64664e-07
-2.24626e-06
2.35276e-07
-2.30602e-06
8.5191e-08
-2.25388e-06
-7.3467e-08
-2.09303e-06
-2.27786e-07
-1.83624e-06
-3.64091e-07
-1.50603e-06
-4.68327e-07
-1.13408e-06
-5.26979e-07
-7.59537e-07
-5.28739e-07
-4.25425e-07
-4.67118e-07
-1.72706e-07
-3.44016e-07
-3.08408e-08
-1.76015e-07
-1.51341e-08
-9.2206e-08
1.12176e-07
-3.56996e-07
4.47414e-07
-7.64574e-07
7.5325e-07
-1.26851e-06
9.65595e-07
-1.81472e-06
1.06459e-06
-2.34906e-06
1.05064e-06
-2.82245e-06
9.35297e-07
-3.19395e-06
7.36166e-07
-3.43261e-06
4.73936e-07
-3.5185e-06
1.71086e-07
-3.44356e-06
-1.48414e-07
-3.21224e-06
-4.59108e-07
-2.84208e-06
-7.34245e-07
-2.36378e-06
-9.46627e-07
-1.8203e-06
-1.07046e-06
-1.26448e-06
-1.08456e-06
-7.5452e-07
-9.77078e-07
-3.46962e-07
-7.51574e-07
-8.73119e-08
-4.35666e-07
-1.02446e-07
-1.45199e-07
2.57374e-07
-5.25455e-07
8.27671e-07
-1.08163e-06
1.30943e-06
-1.74751e-06
1.63147e-06
-2.45433e-06
1.77141e-06
-3.13637e-06
1.73268e-06
-3.73528e-06
1.53421e-06
-4.20289e-06
1.20378e-06
-4.5029e-06
7.7394e-07
-4.6119e-06
2.80086e-07
-4.52022e-06
-2.40094e-07
-4.23269e-06
-7.46641e-07
-3.76931e-06
-1.19762e-06
-3.16558e-06
-1.55036e-06
-2.47183e-06
-1.76422e-06
-1.75103e-06
-1.80535e-06
-1.07448e-06
-1.65363e-06
-5.15119e-07
-1.31094e-06
-1.39298e-07
-8.11487e-07
-2.41744e-07
-1.93603e-07
4.50977e-07
-6.84989e-07
1.31906e-06
-1.3856e-06
2.01004e-06
-2.20721e-06
2.45309e-06
-3.06543e-06
2.62962e-06
-3.88373e-06
2.55098e-06
-4.59645e-06
2.24692e-06
-5.15052e-06
1.75785e-06
-5.50637e-06
1.12979e-06
-5.63843e-06
4.12149e-07
-5.53565e-06
-3.42876e-07
-5.20226e-06
-1.08003e-06
-4.65876e-06
-1.74112e-06
-3.94284e-06
-2.26628e-06
-3.1096e-06
-2.59745e-06
-2.23042e-06
-2.68454e-06
-1.38958e-06
-2.49446e-06
-6.78468e-07
-2.02205e-06
-1.87753e-07
-1.3022e-06
-4.29498e-07
-2.39932e-07
6.90909e-07
-8.40326e-07
1.91945e-06
-1.68324e-06
2.85296e-06
-2.65699e-06
3.42683e-06
-3.66075e-06
3.63338e-06
-4.60767e-06
3.4979e-06
-5.42624e-06
3.06549e-06
-6.06044e-06
2.39205e-06
-6.46921e-06
1.53857e-06
-6.62589e-06
5.68829e-07
-6.51815e-06
-4.50624e-07
-6.14861e-06
-1.44957e-06
-5.53634e-06
-2.35338e-06
-4.71873e-06
-3.08389e-06
-3.75329e-06
-3.5629e-06
-2.71834e-06
-3.71948e-06
-1.71144e-06
-3.50135e-06
-8.44612e-07
-2.88889e-06
-2.3616e-07
-1.91065e-06
-6.65658e-07
-2.86729e-07
9.77638e-07
-9.97044e-07
2.62977e-06
-1.982e-06
3.83792e-06
-3.10483e-06
4.54966e-06
-4.24781e-06
4.77636e-06
-5.31465e-06
4.56474e-06
-6.22993e-06
3.98077e-06
-6.93697e-06
3.09909e-06
-7.39527e-06
1.99686e-06
-7.57839e-06
7.51945e-07
-7.4729e-06
-5.56106e-07
-7.07884e-06
-1.84363e-06
-6.4116e-06
-3.02062e-06
-5.5053e-06
-3.99019e-06
-4.4168e-06
-4.6514e-06
-3.22916e-06
-4.90713e-06
-2.05281e-06
-4.67771e-06
-1.02246e-06
-3.91923e-06
-2.8825e-07
-2.64486e-06
-9.53908e-07
-3.36303e-07
1.31394e-06
-1.1603e-06
3.45376e-06
-2.28789e-06
4.96551e-06
-3.55482e-06
5.81659e-06
-4.8264e-06
6.04795e-06
-5.99882e-06
5.73715e-06
-6.99576e-06
4.97772e-06
-7.76323e-06
3.86656e-06
-8.26418e-06
2.49781e-06
-8.47428e-06
9.6205e-07
-8.3796e-06
-6.50783e-07
-7.97651e-06
-2.24672e-06
-7.27418e-06
-3.72296e-06
-6.29956e-06
-4.96481e-06
-5.1043e-06
-5.84665e-06
-3.77222e-06
-6.23921e-06
-2.42466e-06
-6.02526e-06
-1.22062e-06
-5.12328e-06
-3.47658e-07
-3.51782e-06
-1.30157e-06
-3.90911e-07
1.70485e-06
-1.33477e-06
4.39762e-06
-2.60478e-06
6.23552e-06
-4.00568e-06
7.21749e-06
-5.3865e-06
7.42877e-06
-6.63941e-06
6.99006e-06
-7.69207e-06
6.03038e-06
-8.49808e-06
4.67258e-06
-9.02801e-06
3.02773e-06
-9.26249e-06
1.19653e-06
-9.18819e-06
-7.25087e-07
-8.79699e-06
-2.63792e-06
-8.08885e-06
-4.4311e-06
-7.07849e-06
-5.97516e-06
-5.80582e-06
-7.11932e-06
-4.34861e-06
-7.69643e-06
-2.83448e-06
-7.53938e-06
-1.4469e-06
-6.51086e-06
-4.1802e-07
-4.5467e-06
-1.71959e-06
-4.53382e-07
2.15824e-06
-1.52551e-06
5.46975e-06
-2.9346e-06
7.64461e-06
-4.44975e-06
8.73263e-06
-5.90592e-06
8.88493e-06
-7.19738e-06
8.28153e-06
-8.26322e-06
7.09622e-06
-9.07162e-06
5.48098e-06
-9.60641e-06
3.56253e-06
-9.85711e-06
1.44723e-06
-9.81291e-06
-7.69295e-07
-9.46082e-06
-2.99001e-06
-8.7885e-06
-5.10342e-06
-7.79236e-06
-6.9713e-06
-6.49157e-06
-8.42011e-06
-4.94739e-06
-9.24061e-06
-3.28465e-06
-9.20212e-06
-1.70839e-06
-8.08712e-06
-5.0347e-07
-5.75163e-06
-2.22306e-06
-5.28232e-07
2.68647e-06
-1.73941e-06
6.68094e-06
-3.27759e-06
9.18279e-06
-4.87115e-06
1.03262e-05
-6.34649e-06
1.03603e-05
-7.61029e-06
9.54533e-06
-8.62383e-06
8.10976e-06
-9.37917e-06
6.23631e-06
-9.88047e-06
4.06383e-06
-1.0131e-05
1.69775e-06
-1.01252e-05
-7.75083e-07
-9.8457e-06
-3.26952e-06
-9.26529e-06
-5.68383e-06
-8.35558e-06
-7.88101e-06
-7.10392e-06
-9.67178e-06
-5.53996e-06
-1.08046e-05
-3.77009e-06
-1.0972e-05
-2.01177e-06
-9.84545e-06
-6.09521e-07
-7.15387e-06
-2.83258e-06
-6.23532e-07
3.31e-06
-1.98705e-06
8.04446e-06
-3.63141e-06
1.08271e-05
-5.24134e-06
1.19361e-05
-6.64697e-06
1.17659e-05
-7.78389e-06
1.06823e-05
-8.65047e-06
8.97633e-06
-9.27379e-06
6.85964e-06
-9.68604e-06
4.47608e-06
-9.90931e-06
1.92103e-06
-9.94669e-06
-7.37702e-07
-9.77798e-06
-3.43823e-06
-9.3602e-06
-6.10161e-06
-8.63483e-06
-8.60637e-06
-7.54553e-06
-1.07611e-05
-6.07072e-06
-1.22794e-05
-4.2735e-06
-1.27692e-05
-2.36312e-06
-1.17558e-05
-7.44564e-07
-8.77243e-06
-3.57714e-06
-7.53949e-07
4.06395e-06
-2.28396e-06
9.57447e-06
-3.98641e-06
1.25296e-05
-5.50844e-06
1.34581e-05
-6.70898e-06
1.29664e-05
-7.57799e-06
1.15513e-05
-8.16956e-06
9.5679e-06
-8.55719e-06
7.24727e-06
-8.80733e-06
4.72622e-06
-8.96466e-06
2.07836e-06
-9.04395e-06
-6.5841e-07
-9.02527e-06
-3.45691e-06
-8.85202e-06
-6.27486e-06
-8.43413e-06
-9.02427e-06
-7.66209e-06
-1.15331e-05
-6.44111e-06
-1.35004e-05
-4.7554e-06
-1.44549e-05
-2.76615e-06
-1.37451e-05
-9.2223e-07
-1.06163e-05
-4.49937e-06
-9.45232e-07
5.00918e-06
-2.64813e-06
1.12774e-05
-4.31036e-06
1.41918e-05
-5.57264e-06
1.47204e-05
-6.37011e-06
1.37639e-05
-6.7828e-06
1.1964e-05
-6.94011e-06
9.72521e-06
-6.96942e-06
7.27657e-06
-6.97251e-06
4.72931e-06
-7.01625e-06
2.1221e-06
-7.12835e-06
-5.46317e-07
-7.29346e-06
-3.29179e-06
-7.44825e-06
-6.12006e-06
-7.47738e-06
-8.99514e-06
-7.21729e-06
-1.17932e-05
-6.48198e-06
-1.42357e-05
-5.13264e-06
-1.58042e-05
-3.21447e-06
-1.56633e-05
-1.16439e-06
-1.26664e-05
-5.66376e-06
-1.23793e-06
6.24712e-06
-3.08326e-06
1.31227e-05
-4.50722e-06
1.56158e-05
-5.23399e-06
1.54472e-05
-5.35485e-06
1.38848e-05
-5.08158e-06
1.16907e-05
-4.63074e-06
9.27437e-06
-4.17918e-06
6.82501e-06
-3.85433e-06
4.40446e-06
-3.73703e-06
2.0048e-06
-3.86516e-06
-4.18194e-07
-4.23266e-06
-2.92429e-06
-4.78206e-06
-5.57066e-06
-5.39097e-06
-8.38623e-06
-5.85829e-06
-1.13259e-05
-5.90624e-06
-1.41877e-05
-5.23245e-06
-1.6478e-05
-3.66632e-06
-1.72294e-05
-1.50086e-06
-1.48319e-05
-7.16462e-06
-1.67612e-06
7.92323e-06
-3.51444e-06
1.4961e-05
-4.31535e-06
1.64167e-05
-4.08883e-06
1.52207e-05
-3.1931e-06
1.2989e-05
-1.99887e-06
1.04965e-05
-7.9534e-07
8.07084e-06
2.19084e-07
5.81059e-06
9.17937e-07
3.70561e-06
1.22527e-06
1.69747e-06
1.10168e-06
-2.94606e-07
5.40632e-07
-2.36324e-06
-4.23389e-07
-4.60664e-06
-1.69305e-06
-7.11657e-06
-3.0729e-06
-9.94604e-06
-4.23134e-06
-1.30293e-05
-4.69635e-06
-1.6013e-05
-3.96891e-06
-1.79568e-05
-1.94777e-06
-1.6853e-05
-9.11239e-06
-2.23815e-06
1.01614e-05
-3.59401e-06
1.63169e-05
-3.07881e-06
1.59015e-05
-1.34455e-06
1.34864e-05
8.96376e-07
1.07481e-05
3.15434e-06
8.23851e-06
5.1375e-06
6.08768e-06
6.68808e-06
4.26001e-06
7.72521e-06
2.66848e-06
8.20589e-06
1.21679e-06
8.10315e-06
-1.91868e-07
7.39821e-06
-1.6583e-06
6.08592e-06
-3.29434e-06
4.1981e-06
-5.22875e-06
1.85286e-06
-7.6008e-06
-6.6332e-07
-1.05131e-05
-2.79454e-06
-1.38818e-05
-3.66746e-06
-1.70839e-05
-2.42051e-06
-1.81e-05
-1.15329e-05
-2.59898e-06
1.27604e-05
-2.18879e-06
1.59067e-05
7.17021e-07
1.29957e-05
4.46846e-06
9.73498e-06
8.13207e-06
7.08449e-06
1.13004e-05
5.07017e-06
1.3828e-05
3.56007e-06
1.56871e-05
2.40093e-06
1.68907e-05
1.46487e-06
1.74539e-05
6.53596e-07
1.73753e-05
-1.13276e-07
1.66293e-05
-9.12307e-07
1.51658e-05
-1.83085e-06
1.2922e-05
-2.98489e-06
9.86001e-06
-4.53884e-06
6.06003e-06
-6.71313e-06
1.90981e-06
-9.73158e-06
-1.56713e-06
-1.3607e-05
-2.48616e-06
-1.71809e-05
-1.40191e-05
-7.41231e-07
1.35016e-05
4.0892e-06
1.10763e-05
1.02979e-05
6.78697e-06
1.57927e-05
4.24018e-06
2.01567e-05
2.72049e-06
2.34567e-05
1.77019e-06
2.58595e-05
1.15721e-06
2.75204e-05
7.40062e-07
2.8553e-05
4.32285e-07
2.90254e-05
1.81227e-07
2.89611e-05
-4.90363e-08
2.83375e-05
-2.88703e-07
2.70804e-05
-5.73744e-07
2.50535e-05
-9.57965e-07
2.20502e-05
-1.53558e-06
1.78146e-05
-2.47747e-06
1.21729e-05
-4.08987e-06
5.48702e-06
-6.92113e-06
-8.11668e-08
-1.16128e-05
-1.41002e-05
1.35016e-05
2.45779e-05
3.13648e-05
3.5605e-05
3.83255e-05
4.00957e-05
4.12529e-05
4.1993e-05
4.24253e-05
4.26065e-05
4.25574e-05
4.22687e-05
4.1695e-05
4.0737e-05
3.92014e-05
3.6724e-05
3.26341e-05
2.5713e-05
1.41002e-05
)
;

boundaryField
{
    movingWall
    {
        type            calculated;
        value           uniform 0;
    }
    fixedWalls
    {
        type            calculated;
        value           uniform 0;
    }
    frontAndBack
    {
        type            empty;
    }
}


// ************************************************************************* //
