/*--------------------------------*- C++ -*----------------------------------*\
| =========                 |                                                 |
| \\      /  F ield         | OpenFOAM: The Open Source CFD Toolbox           |
|  \\    /   O peration     | Version:  2512                                  |
|   \\  /    A nd           | Website:  www.openfoam.com                      |
|    \\/     M anipulation  |                                                 |
\*---------------------------------------------------------------------------*/
FoamFile
{
    version     2.0;
    format      ascii;
    arch        "LSB;label=32;scalar=64";
    class       volScalarField;
    location    "0.5";
    object      p;
}
// * * * * * * * * * * * * * * * * * * * * * * * * * * * * * * * * * * * * * //

dimensions      [0 2 -2 0 0 0 0];

internalField   nonuniform List<scalar> 
400
(
4.78589e-06
-0.00583279
-0.0129733
-0.0184244
-0.0204427
-0.0182494
-0.0117842
-0.00149247
0.0118308
0.0271452
0.0432433
0.0588247
0.0725827
0.0833143
0.0900594
0.0922732
0.0900316
0.0842512
0.0768823
0.071061
0.00578937
-0.000219709
-0.00579816
-0.00953292
-0.0105881
-0.00842183
-0.00296023
0.0054815
0.016307
0.028712
0.0417461
0.0543784
0.0655755
0.0743965
0.0801056
0.0823011
0.0810641
0.0770459
0.0712724
0.0653083
0.0133461
0.00502586
-0.00099541
-0.00442171
-0.00527207
-0.00326336
0.00160261
0.00902735
0.0185012
0.0293476
0.0407629
0.0518664
0.0617646
0.0696319
0.0748023
0.0768733
0.0758365
0.0720825
0.0658097
0.0575218
0.0201511
0.00868341
0.00122463
-0.00266799
-0.00372256
-0.00188613
0.00273024
0.00978329
0.0187788
0.0290931
0.0399897
0.0506514
0.0602299
0.0679127
0.0729997
0.0749979
0.0737615
0.0694538
0.0616121
0.0500883
0.024517
0.00975689
0.000589083
-0.00398502
-0.00530146
-0.00350701
0.00117472
0.00833408
0.017461
0.0279475
0.0390828
0.050067
0.0600452
0.0681608
0.0736218
0.0757929
0.0743632
0.0692869
0.0595388
0.0445196
0.0251972
0.00713016
-0.00380226
-0.00905415
-0.0105105
-0.00849879
-0.00335605
0.00442956
0.0143128
0.0256777
0.0378117
0.0499004
0.0610443
0.0702985
0.0767295
0.0795111
0.0781318
0.0723302
0.0605569
0.041868
0.0211177
-0.000285808
-0.012934
-0.0187049
-0.020027
-0.0174117
-0.0113167
-0.00231875
0.00899052
0.0219754
0.0359079
0.0499417
0.0631084
0.0743404
0.0825162
0.0865628
0.085712
0.0794428
0.0656426
0.0430443
0.0111729
-0.013645
-0.0278733
-0.0338478
-0.0345993
-0.030854
-0.0232099
-0.0123431
0.00110591
0.0164839
0.0330514
0.0499312
0.0660797
0.0802848
0.0911943
0.0974221
0.0978593
0.0916302
0.0759233
0.049082
-0.00592951
-0.0342965
-0.0498661
-0.0555395
-0.055084
-0.0495095
-0.0395891
-0.0261099
-0.0097548
0.00882406
0.0289007
0.0495917
0.069794
0.0881492
0.10304
0.112692
0.115537
0.110183
0.0928664
0.0613672
-0.0318093
-0.0639092
-0.0804097
-0.0849945
-0.0824115
-0.0740714
-0.0609749
-0.0440317
-0.0239478
-0.00133449
0.0231465
0.0486602
0.0740927
0.0979669
0.118388
0.133114
0.13997
0.136806
0.118478
0.0818754
-0.068605
-0.104639
-0.121333
-0.123573
-0.117504
-0.105118
-0.0877106
-0.0663192
-0.0416319
-0.0141517
0.015608
0.0469538
0.078854
0.109789
0.137615
0.159572
0.172703
0.173759
0.155562
0.113491
-0.119319
-0.159394
-0.174896
-0.172734
-0.161133
-0.142918
-0.11975
-0.0927694
-0.062571
-0.0294423
0.0063773
0.044476
0.0840551
0.1237
0.161128
0.19307
0.215638
0.224049
0.208093
0.160521
-0.188514
-0.232278
-0.243912
-0.233919
-0.213677
-0.187142
-0.156362
-0.122493
-0.0858905
-0.0464654
-0.00400844
0.0415437
0.0898448
0.139828
0.189312
0.234673
0.271038
0.291625
0.281782
0.229617
-0.283817
-0.329332
-0.331793
-0.308247
-0.274691
-0.236427
-0.195754
-0.153602
-0.109832
-0.0637374
-0.01443
0.0388711
0.0965607
0.15828
0.222372
0.285274
0.341357
0.381522
0.384936
0.331611
-0.419116
-0.459671
-0.442295
-0.395759
-0.342115
-0.28773
-0.234609
-0.182923
-0.131602
-0.0789768
-0.0232043
0.0374864
0.104565
0.178848
0.259868
0.344966
0.42858
0.499628
0.529653
0.485094
-0.620309
-0.636704
-0.57861
-0.494169
-0.411234
-0.335654
-0.267777
-0.205973
-0.147531
-0.0893746
-0.0284149
0.0383626
0.113824
0.200491
0.299993
0.412035
0.533014
0.651711
0.732704
0.722044
-0.935786
-0.878458
-0.741733
-0.597969
-0.474392
-0.372652
-0.288863
-0.217756
-0.153945
-0.092454
-0.0287054
0.0417112
0.123283
0.220741
0.338948
0.48218
0.652055
0.841405
1.01522
1.09719
-1.47722
-1.20583
-0.920586
-0.691603
-0.517374
-0.38757
-0.290082
-0.213349
-0.148127
-0.0872101
-0.0245639
0.045481
0.128973
0.233119
0.367158
0.542771
0.771552
1.0595
1.40242
1.73089
-2.54621
-1.62525
-1.04413
-0.711618
-0.496091
-0.352297
-0.254686
-0.18369
-0.126232
-0.0736195
-0.0192531
0.0428382
0.119308
0.218931
0.355014
0.548302
0.826988
1.23619
1.90602
2.93141
-4.37956
-2.04003
-0.972832
-0.563392
-0.35774
-0.239978
-0.170003
-0.123708
-0.0874337
-0.0534848
-0.0166532
0.0276451
0.0845691
0.161657
0.272293
0.442
0.718322
1.22491
2.40647
4.86184
)
;

boundaryField
{
    movingWall
    {
        type            zeroGradient;
    }
    fixedWalls
    {
        type            zeroGradient;
    }
    frontAndBack
    {
        type            empty;
    }
}


// ************************************************************************* //
