# Solver information
# Time        	U_solver      	Ux_initial    	Ux_final      	Ux_iters      	Uy_initial    	Uy_final      	Uy_iters      	Uz_initial    	Uz_final      	Uz_iters      	U_converged   	p_solver      	p_initial     	p_final       	p_iters       	p_converged   
1             	smoothSolver	1.000000e+00	9.681980e-02	14	1.000000e+00	9.135120e-02	12	1.000000e+00	9.089890e-02	13	false	GAMG	1.000000e+00	6.035830e-03	6	true
2             	smoothSolver	8.808980e-02	7.289110e-03	10	4.896610e-01	4.134550e-02	9	2.940970e-01	2.393790e-02	9	false	GAMG	2.680350e-01	2.169050e-03	4	true
3             	smoothSolver	8.363370e-02	7.359830e-03	5	5.194130e-01	4.041160e-02	6	3.711600e-01	2.874530e-02	5	false	GAMG	1.316460e-01	5.634150e-04	5	true
4             	smoothSolver	4.074400e-02	3.071720e-03	6	4.200560e-01	3.144380e-02	6	2.656370e-01	2.316030e-02	5	false	GAMG	8.002750e-02	6.459700e-04	4	true
5             	smoothSolver	2.057720e-02	1.947550e-03	6	3.223620e-01	2.718320e-02	6	2.133200e-01	1.671430e-02	6	false	GAMG	6.108720e-02	4.569480e-04	4	true
6             	smoothSolver	1.551460e-02	1.447270e-03	6	2.556320e-01	2.226040e-02	6	2.079250e-01	1.657810e-02	6	false	GAMG	4.999040e-02	3.027280e-04	4	true
7             	smoothSolver	1.144990e-02	8.566950e-04	7	2.100050e-01	1.912920e-02	6	2.122680e-01	1.777970e-02	6	false	GAMG	4.271210e-02	2.344350e-04	4	true
8             	smoothSolver	9.583560e-03	7.294550e-04	7	1.850920e-01	1.714970e-02	6	2.199060e-01	1.901090e-02	6	false	GAMG	3.834670e-02	2.013420e-04	4	true
9             	smoothSolver	8.065580e-03	6.452230e-04	7	1.715380e-01	1.612320e-02	6	1.993840e-01	1.822420e-02	6	false	GAMG	3.527930e-02	1.803170e-04	4	true
10            	smoothSolver	7.132590e-03	5.992570e-04	7	1.664020e-01	1.591870e-02	6	1.805900e-01	1.697070e-02	6	false	GAMG	3.347890e-02	1.570140e-04	4	true
11            	smoothSolver	6.660480e-03	5.749390e-04	7	1.619660e-01	1.602410e-02	6	1.681580e-01	1.630760e-02	6	false	GAMG	3.216820e-02	1.527300e-04	4	true
12            	smoothSolver	6.394810e-03	5.667550e-04	7	1.593180e-01	1.191000e-02	7	1.632510e-01	1.630170e-02	6	false	GAMG	3.123440e-02	1.516270e-04	4	true
13            	smoothSolver	6.208990e-03	5.603730e-04	7	1.557170e-01	1.198860e-02	7	1.596090e-01	1.221400e-02	7	false	GAMG	3.101360e-02	1.551490e-04	4	true
14            	smoothSolver	6.093710e-03	5.528510e-04	7	1.514960e-01	1.187310e-02	7	1.463830e-01	1.138220e-02	7	false	GAMG	3.105290e-02	1.546640e-04	4	true
15            	smoothSolver	5.957550e-03	5.420460e-04	7	1.445120e-01	1.143800e-02	7	1.299330e-01	1.030940e-02	7	false	GAMG	3.119300e-02	1.556730e-04	4	true
16            	smoothSolver	5.719440e-03	5.279010e-04	7	1.343560e-01	1.076870e-02	7	1.148550e-01	9.234880e-03	7	false	GAMG	3.098940e-02	1.589810e-04	4	true
17            	smoothSolver	5.435920e-03	5.127070e-04	7	1.217530e-01	9.751760e-03	7	1.028440e-01	8.289960e-03	7	false	GAMG	3.085780e-02	1.566830e-04	4	true
18            	smoothSolver	5.154970e-03	4.943780e-04	7	1.091620e-01	8.708580e-03	7	9.395340e-02	7.536370e-03	7	false	GAMG	3.044130e-02	1.481450e-04	4	true
19            	smoothSolver	4.919160e-03	4.754290e-04	7	9.965960e-02	7.930970e-03	7	8.576630e-02	6.959380e-03	7	false	GAMG	2.954770e-02	1.429760e-04	4	true
20            	smoothSolver	4.727320e-03	4.561120e-04	7	9.526590e-02	7.612360e-03	7	8.042980e-02	6.603070e-03	7	false	GAMG	2.859530e-02	1.459800e-04	4	true
21            	smoothSolver	4.477750e-03	4.352620e-04	7	9.369310e-02	7.568420e-03	7	7.600550e-02	6.336700e-03	7	false	GAMG	2.746870e-02	1.483440e-04	4	true
22            	smoothSolver	4.195680e-03	4.157900e-04	7	9.333510e-02	7.739480e-03	7	7.249000e-02	6.195770e-03	7	false	GAMG	2.644610e-02	1.473580e-04	4	true
23            	smoothSolver	3.967310e-03	3.003280e-04	8	9.428250e-02	8.073980e-03	7	7.003880e-02	6.121050e-03	7	false	GAMG	2.558640e-02	1.435310e-04	4	true
24            	smoothSolver	3.757710e-03	2.910690e-04	8	9.554860e-02	8.366250e-03	7	6.855170e-02	6.108730e-03	7	false	GAMG	2.475830e-02	1.379440e-04	4	true
25            	smoothSolver	3.605080e-03	2.854990e-04	8	9.540090e-02	8.378370e-03	7	6.655610e-02	6.029180e-03	7	false	GAMG	2.402430e-02	1.318220e-04	4	true
26            	smoothSolver	3.496460e-03	2.793310e-04	8	9.254560e-02	8.173090e-03	7	6.452380e-02	5.875960e-03	7	false	GAMG	2.340700e-02	1.278800e-04	4	true
27            	smoothSolver	3.398850e-03	2.742730e-04	8	8.824160e-02	7.901770e-03	7	6.226630e-02	5.705650e-03	7	false	GAMG	2.250540e-02	1.226370e-04	4	true
28            	smoothSolver	3.301550e-03	2.705370e-04	8	8.214760e-02	7.442750e-03	7	5.989790e-02	5.539980e-03	7	false	GAMG	2.161260e-02	1.193900e-04	4	true
29            	smoothSolver	3.238120e-03	2.687330e-04	8	7.529450e-02	6.892080e-03	7	5.695690e-02	5.305280e-03	7	false	GAMG	2.071220e-02	1.175760e-04	4	true
30            	smoothSolver	3.169410e-03	2.656340e-04	8	6.814410e-02	6.298090e-03	7	5.418960e-02	5.141370e-03	7	false	GAMG	1.987850e-02	1.120970e-04	4	true
31            	smoothSolver	3.110360e-03	2.613840e-04	8	6.179060e-02	5.794880e-03	7	5.170800e-02	5.020080e-03	7	false	GAMG	1.913680e-02	1.089110e-04	4	true
32            	smoothSolver	3.040920e-03	2.577570e-04	8	5.676060e-02	5.389110e-03	7	4.988560e-02	4.926350e-03	7	false	GAMG	1.838170e-02	1.090490e-04	4	true
33            	smoothSolver	2.950980e-03	2.539440e-04	8	5.316230e-02	5.131250e-03	7	4.816950e-02	3.645250e-03	8	false	GAMG	1.773600e-02	1.099680e-04	4	true
34            	smoothSolver	2.870310e-03	2.485250e-04	8	5.104020e-02	5.038510e-03	7	4.633440e-02	3.528850e-03	8	false	GAMG	1.701290e-02	1.040330e-04	4	true
35            	smoothSolver	2.784070e-03	2.408420e-04	8	5.043870e-02	5.036950e-03	7	4.466980e-02	3.407280e-03	8	false	GAMG	1.639840e-02	9.794520e-05	4	true
36            	smoothSolver	2.668360e-03	2.309550e-04	8	5.080980e-02	3.803920e-03	8	4.324180e-02	3.280120e-03	8	false	GAMG	1.581470e-02	9.430750e-05	4	true
37            	smoothSolver	2.546070e-03	2.213200e-04	8	5.137630e-02	5.126990e-03	7	4.175530e-02	3.147520e-03	8	false	GAMG	1.526660e-02	9.442260e-05	4	true
38            	smoothSolver	2.422810e-03	2.111040e-04	8	5.157660e-02	5.142390e-03	7	3.978010e-02	3.970450e-03	7	false	GAMG	1.467320e-02	9.058430e-05	4	true
39            	smoothSolver	2.302200e-03	2.010250e-04	8	5.103960e-02	5.057010e-03	7	3.820430e-02	3.762200e-03	7	false	GAMG	1.405090e-02	8.850360e-05	4	true
40            	smoothSolver	2.196600e-03	1.915120e-04	8	4.969920e-02	4.846010e-03	7	3.667230e-02	3.590880e-03	7	false	GAMG	1.347370e-02	8.568900e-05	4	true
41            	smoothSolver	2.107240e-03	1.817430e-04	8	4.729770e-02	4.533790e-03	7	3.516540e-02	3.429610e-03	7	false	GAMG	1.285700e-02	8.016900e-05	4	true
42            	smoothSolver	2.014450e-03	1.698580e-04	8	4.385620e-02	4.191510e-03	7	3.358780e-02	3.262690e-03	7	false	GAMG	1.221520e-02	7.214970e-05	4	true
43            	smoothSolver	1.904530e-03	1.581920e-04	8	3.996520e-02	3.782450e-03	7	3.187040e-02	3.051440e-03	7	false	GAMG	1.167760e-02	6.473480e-05	4	true
44            	smoothSolver	1.780790e-03	1.475910e-04	8	3.624900e-02	3.402080e-03	7	2.985310e-02	2.794820e-03	7	false	GAMG	1.124880e-02	5.915190e-05	4	true
45            	smoothSolver	1.666540e-03	1.376980e-04	8	3.316000e-02	3.094930e-03	7	2.785680e-02	2.539570e-03	7	false	GAMG	1.087650e-02	5.582490e-05	4	true
46            	smoothSolver	1.562130e-03	1.282430e-04	8	3.099950e-02	2.878880e-03	7	2.595610e-02	2.333900e-03	7	false	GAMG	1.051490e-02	5.356150e-05	4	true
47            	smoothSolver	1.476460e-03	1.201100e-04	8	2.968440e-02	2.719820e-03	7	2.461420e-02	2.176650e-03	7	false	GAMG	1.012070e-02	5.291960e-05	4	true
48            	smoothSolver	1.395690e-03	1.130320e-04	8	2.879570e-02	2.582300e-03	7	2.362380e-02	2.054850e-03	7	false	GAMG	9.698210e-03	5.170840e-05	4	true
49            	smoothSolver	1.326540e-03	1.076890e-04	8	2.806090e-02	2.447320e-03	7	2.278940e-02	1.952420e-03	7	false	GAMG	9.263940e-03	4.897160e-05	4	true
50            	smoothSolver	1.263110e-03	1.020340e-04	8	2.721590e-02	2.315960e-03	7	2.200030e-02	1.859570e-03	7	false	GAMG	8.812730e-03	4.479170e-05	4	true
51            	smoothSolver	1.197180e-03	9.533750e-05	8	2.603640e-02	2.203850e-03	7	2.111560e-02	1.775820e-03	7	false	GAMG	8.390420e-03	4.059620e-05	4	true
52            	smoothSolver	1.126790e-03	8.784750e-05	8	2.462840e-02	2.127470e-03	7	2.005670e-02	1.688530e-03	7	false	GAMG	8.001360e-03	3.738470e-05	4	true
53            	smoothSolver	1.058490e-03	8.040680e-05	8	2.316150e-02	2.039580e-03	7	1.887300e-02	1.600650e-03	7	false	GAMG	7.635040e-03	3.571340e-05	4	true
54            	smoothSolver	9.920480e-04	9.902350e-05	7	2.184720e-02	1.928050e-03	7	1.778270e-02	1.511230e-03	7	false	GAMG	7.358180e-03	3.459930e-05	4	true
55            	smoothSolver	9.330570e-04	9.062110e-05	7	2.089700e-02	1.784350e-03	7	1.712000e-02	1.418120e-03	7	false	GAMG	7.160860e-03	3.388830e-05	4	true
56            	smoothSolver	8.873890e-04	8.358140e-05	7	2.017670e-02	1.650610e-03	7	1.664800e-02	1.337550e-03	7	false	GAMG	6.963980e-03	3.357260e-05	4	true
57            	smoothSolver	8.372690e-04	7.807760e-05	7	1.949150e-02	1.542680e-03	7	1.620640e-02	1.268920e-03	7	false	GAMG	6.731660e-03	3.188320e-05	4	true
58            	smoothSolver	7.890920e-04	7.450750e-05	7	1.870360e-02	1.468340e-03	7	1.550810e-02	1.194490e-03	7	false	GAMG	6.480360e-03	2.856050e-05	4	true
59            	smoothSolver	7.468230e-04	7.228710e-05	7	1.773710e-02	1.406880e-03	7	1.466150e-02	1.122280e-03	7	false	GAMG	6.222710e-03	2.682470e-05	4	true
60            	smoothSolver	7.152480e-04	7.038050e-05	7	1.676510e-02	1.334450e-03	7	1.382150e-02	1.056960e-03	7	false	GAMG	5.970770e-03	2.637450e-05	4	true
61            	smoothSolver	6.892380e-04	6.738190e-05	7	1.587050e-02	1.244520e-03	7	1.308460e-02	9.947460e-04	7	false	GAMG	5.748320e-03	2.630050e-05	4	true
62            	smoothSolver	6.660670e-04	6.406970e-05	7	1.505790e-02	1.152410e-03	7	1.249900e-02	9.365500e-04	7	false	GAMG	5.540310e-03	2.580810e-05	4	true
63            	smoothSolver	6.402180e-04	6.039740e-05	7	1.414260e-02	1.073340e-03	7	1.194960e-02	8.943480e-04	7	false	GAMG	5.327520e-03	2.456150e-05	4	true
64            	smoothSolver	6.073310e-04	5.677260e-05	7	1.321450e-02	1.007490e-03	7	1.133290e-02	8.562430e-04	7	false	GAMG	5.096150e-03	2.299710e-05	4	true
65            	smoothSolver	5.733010e-04	5.385710e-05	7	1.239590e-02	9.478260e-04	7	1.075360e-02	8.165380e-04	7	false	GAMG	4.858270e-03	2.182870e-05	4	true
66            	smoothSolver	5.421790e-04	5.133730e-05	7	1.169110e-02	8.892310e-04	7	1.024650e-02	7.759960e-04	7	false	GAMG	4.646430e-03	2.116400e-05	4	true
67            	smoothSolver	5.178760e-04	4.892810e-05	7	1.117160e-02	8.360370e-04	7	9.848580e-03	7.347540e-04	7	false	GAMG	4.458390e-03	2.058540e-05	4	true
68            	smoothSolver	4.976660e-04	4.684370e-05	7	1.069640e-02	7.937770e-04	7	9.514320e-03	9.513450e-04	6	false	GAMG	4.304380e-03	1.933290e-05	4	true
69            	smoothSolver	4.804210e-04	4.504020e-05	7	1.030820e-02	7.640720e-04	7	9.225010e-03	9.182320e-04	6	false	GAMG	4.183340e-03	1.880460e-05	4	true
70            	smoothSolver	4.663250e-04	4.357490e-05	7	9.988190e-03	7.426040e-04	7	9.047070e-03	8.968620e-04	6	false	GAMG	4.077950e-03	1.838660e-05	4	true
71            	smoothSolver	4.560160e-04	4.239580e-05	7	9.802960e-03	7.286830e-04	7	8.968920e-03	8.858770e-04	6	false	GAMG	3.988710e-03	1.802780e-05	4	true
72            	smoothSolver	4.470150e-04	4.134790e-05	7	9.726810e-03	7.235970e-04	7	8.949370e-03	8.830520e-04	6	false	GAMG	3.913850e-03	1.786040e-05	4	true
73            	smoothSolver	4.387390e-04	4.024010e-05	7	9.701820e-03	7.254200e-04	7	8.948010e-03	8.847030e-04	6	false	GAMG	3.858230e-03	1.786430e-05	4	true
74            	smoothSolver	4.306640e-04	3.891450e-05	7	9.702880e-03	7.258510e-04	7	8.916470e-03	8.831790e-04	6	false	GAMG	3.797000e-03	1.787050e-05	4	true
75            	smoothSolver	4.211430e-04	3.744590e-05	7	9.641150e-03	7.210020e-04	7	8.814310e-03	8.782620e-04	6	false	GAMG	3.731110e-03	1.776150e-05	4	true
76            	smoothSolver	4.089340e-04	3.581900e-05	7	9.510560e-03	7.054980e-04	7	8.619010e-03	6.371700e-04	7	false	GAMG	3.651440e-03	1.790400e-05	4	true
77            	smoothSolver	3.954730e-04	3.441540e-05	7	9.293330e-03	9.260410e-04	6	8.351060e-03	6.158200e-04	7	false	GAMG	3.573040e-03	1.719330e-05	4	true
78            	smoothSolver	3.828410e-04	3.347750e-05	7	9.024230e-03	9.001190e-04	6	8.048090e-03	8.014850e-04	6	false	GAMG	3.486970e-03	1.599520e-05	4	true
79            	smoothSolver	3.705110e-04	3.294460e-05	7	8.742820e-03	6.446200e-04	7	7.729240e-03	5.785070e-04	7	false	GAMG	3.413540e-03	1.597920e-05	4	true
80            	smoothSolver	3.588290e-04	3.251450e-05	7	8.395320e-03	6.256050e-04	7	7.404860e-03	5.611020e-04	7	false	GAMG	3.321420e-03	1.544900e-05	4	true
81            	smoothSolver	3.483110e-04	3.203120e-05	7	8.060080e-03	6.083940e-04	7	7.074460e-03	5.407000e-04	7	false	GAMG	3.233840e-03	1.507800e-05	4	true
82            	smoothSolver	3.394650e-04	3.143660e-05	7	7.760270e-03	5.934560e-04	7	6.796090e-03	5.222880e-04	7	false	GAMG	3.130210e-03	1.455000e-05	4	true
83            	smoothSolver	3.310080e-04	3.083460e-05	7	7.483510e-03	5.785590e-04	7	6.536880e-03	5.049710e-04	7	false	GAMG	3.040090e-03	1.422170e-05	4	true
84            	smoothSolver	3.226200e-04	3.013930e-05	7	7.266390e-03	5.664740e-04	7	6.317690e-03	4.921620e-04	7	false	GAMG	2.953840e-03	1.361440e-05	4	true
85            	smoothSolver	3.139760e-04	2.927070e-05	7	7.117000e-03	5.555070e-04	7	6.168780e-03	4.868090e-04	7	false	GAMG	2.883000e-03	1.300650e-05	4	true
86            	smoothSolver	3.057010e-04	2.831310e-05	7	6.972230e-03	5.462430e-04	7	6.064020e-03	4.839080e-04	7	false	GAMG	2.821360e-03	1.231630e-05	4	true
87            	smoothSolver	2.974630e-04	2.732410e-05	7	6.815550e-03	5.347610e-04	7	5.974610e-03	4.786460e-04	7	false	GAMG	2.779840e-03	1.164010e-05	4	true
88            	smoothSolver	2.889670e-04	2.653760e-05	7	6.630430e-03	5.197540e-04	7	5.857780e-03	4.674630e-04	7	false	GAMG	2.741530e-03	1.126610e-05	4	true
89            	smoothSolver	2.801710e-04	2.608270e-05	7	6.435850e-03	5.052400e-04	7	5.694240e-03	4.522460e-04	7	false	GAMG	2.711310e-03	1.124270e-05	4	true
90            	smoothSolver	2.717230e-04	2.582110e-05	7	6.255450e-03	4.915190e-04	7	5.537680e-03	4.381570e-04	7	false	GAMG	2.677650e-03	1.140620e-05	4	true
91            	smoothSolver	2.655860e-04	2.556450e-05	7	6.111380e-03	4.772060e-04	7	5.402500e-03	4.228950e-04	7	false	GAMG	2.641670e-03	1.156070e-05	4	true
92            	smoothSolver	2.616880e-04	2.513800e-05	7	5.957980e-03	4.595990e-04	7	5.276270e-03	4.079300e-04	7	false	GAMG	2.597250e-03	1.144760e-05	4	true
93            	smoothSolver	2.589010e-04	2.445420e-05	7	5.808730e-03	4.423840e-04	7	5.147830e-03	3.920610e-04	7	false	GAMG	2.561620e-03	1.112390e-05	4	true
94            	smoothSolver	2.554320e-04	2.362900e-05	7	5.661790e-03	4.247980e-04	7	5.004010e-03	3.771540e-04	7	false	GAMG	2.539080e-03	1.067580e-05	4	true
95            	smoothSolver	2.525890e-04	2.298140e-05	7	5.566740e-03	4.107360e-04	7	4.898610e-03	3.659820e-04	7	false	GAMG	2.531630e-03	1.044970e-05	4	true
96            	smoothSolver	2.486110e-04	2.248050e-05	7	5.513260e-03	5.491430e-04	6	4.841250e-03	3.571840e-04	7	false	GAMG	2.530810e-03	1.045160e-05	4	true
97            	smoothSolver	2.440650e-04	2.194940e-05	7	5.494100e-03	5.406090e-04	6	4.802920e-03	4.765060e-04	6	false	GAMG	2.530700e-03	1.029050e-05	4	true
98            	smoothSolver	2.400760e-04	2.135670e-05	7	5.461850e-03	5.321780e-04	6	4.790870e-03	4.730800e-04	6	false	GAMG	2.525950e-03	1.045700e-05	4	true
99            	smoothSolver	2.353260e-04	2.069240e-05	7	5.422590e-03	5.228020e-04	6	4.755620e-03	4.691050e-04	6	false	GAMG	2.506400e-03	1.053830e-05	4	true
100           	smoothSolver	2.304140e-04	2.002590e-05	7	5.368040e-03	5.132920e-04	6	4.702390e-03	4.615310e-04	6	false	GAMG	2.473500e-03	1.043510e-05	4	true
101           	smoothSolver	2.256780e-04	1.941580e-05	7	5.276970e-03	4.978620e-04	6	4.617250e-03	4.503870e-04	6	false	GAMG	2.442430e-03	1.015430e-05	4	true
102           	smoothSolver	2.210960e-04	1.886260e-05	7	5.165070e-03	4.812570e-04	6	4.532310e-03	4.362850e-04	6	false	GAMG	2.414040e-03	9.751300e-06	4	true
103           	smoothSolver	2.170140e-04	1.841850e-05	7	5.049890e-03	4.693500e-04	6	4.457700e-03	4.260260e-04	6	false	GAMG	2.383030e-03	9.347340e-06	4	true
104           	smoothSolver	2.130690e-04	1.810870e-05	7	4.940710e-03	4.593310e-04	6	4.384000e-03	4.170830e-04	6	false	GAMG	2.349040e-03	8.999280e-06	4	true
105           	smoothSolver	2.080860e-04	1.771860e-05	7	4.840790e-03	4.536450e-04	6	4.308810e-03	4.098690e-04	6	false	GAMG	2.312530e-03	8.692470e-06	4	true
106           	smoothSolver	2.027460e-04	1.723020e-05	7	4.748920e-03	4.467790e-04	6	4.238670e-03	4.052420e-04	6	false	GAMG	2.274750e-03	8.463140e-06	4	true
107           	smoothSolver	1.987480e-04	1.687360e-05	7	4.674820e-03	4.405090e-04	6	4.177770e-03	4.007280e-04	6	false	GAMG	2.235980e-03	8.319960e-06	4	true
108           	smoothSolver	1.960370e-04	1.661950e-05	7	4.630940e-03	4.342400e-04	6	4.140040e-03	3.973020e-04	6	false	GAMG	2.197800e-03	8.283350e-06	4	true
109           	smoothSolver	1.936620e-04	1.635910e-05	7	4.593670e-03	4.300250e-04	6	4.095320e-03	3.949010e-04	6	false	GAMG	2.166320e-03	8.326910e-06	4	true
110           	smoothSolver	1.915710e-04	1.620160e-05	7	4.549560e-03	4.266950e-04	6	4.059590e-03	3.933220e-04	6	false	GAMG	2.138370e-03	8.484410e-06	4	true
111           	smoothSolver	1.896660e-04	1.611840e-05	7	4.535900e-03	4.301870e-04	6	4.036960e-03	3.920030e-04	6	false	GAMG	2.110820e-03	8.507830e-06	4	true
112           	smoothSolver	1.873250e-04	1.604120e-05	7	4.515640e-03	4.336800e-04	6	4.000110e-03	3.908750e-04	6	false	GAMG	2.083380e-03	8.413120e-06	4	true
113           	smoothSolver	1.856040e-04	1.608380e-05	7	4.508380e-03	4.373720e-04	6	3.953580e-03	3.893860e-04	6	false	GAMG	2.056080e-03	8.050280e-06	4	true
114           	smoothSolver	1.842630e-04	1.621640e-05	7	4.483170e-03	4.389570e-04	6	3.902340e-03	3.881050e-04	6	false	GAMG	2.034040e-03	7.718610e-06	4	true
115           	smoothSolver	1.839290e-04	1.645570e-05	7	4.429570e-03	4.396330e-04	6	3.841930e-03	2.847580e-04	7	false	GAMG	2.004400e-03	7.664980e-06	4	true
116           	smoothSolver	1.829500e-04	1.663310e-05	7	4.389880e-03	4.383450e-04	6	3.764250e-03	2.793050e-04	7	false	GAMG	1.972470e-03	7.572820e-06	4	true
117           	smoothSolver	1.818360e-04	1.680880e-05	7	4.342030e-03	3.211210e-04	7	3.679750e-03	2.721360e-04	7	false	GAMG	1.939950e-03	7.653020e-06	4	true
118           	smoothSolver	1.809630e-04	1.689880e-05	7	4.298450e-03	4.285720e-04	6	3.606080e-03	2.670600e-04	7	false	GAMG	1.905250e-03	7.599860e-06	4	true
119           	smoothSolver	1.793000e-04	1.685390e-05	7	4.238700e-03	4.237850e-04	6	3.536180e-03	2.606760e-04	7	false	GAMG	1.875210e-03	7.513070e-06	4	true
120           	smoothSolver	1.766340e-04	1.662660e-05	7	4.168350e-03	3.065790e-04	7	3.465230e-03	3.454950e-04	6	false	GAMG	1.847650e-03	7.244960e-06	4	true
121           	smoothSolver	1.737020e-04	1.631330e-05	7	4.064550e-03	4.046580e-04	6	3.407820e-03	3.390090e-04	6	false	GAMG	1.824120e-03	6.976910e-06	4	true
122           	smoothSolver	1.697430e-04	1.580070e-05	7	3.980770e-03	3.926640e-04	6	3.354710e-03	3.327270e-04	6	false	GAMG	1.807400e-03	6.815340e-06	4	true
123           	smoothSolver	1.661460e-04	1.526240e-05	7	3.891950e-03	3.811350e-04	6	3.298040e-03	3.233950e-04	6	false	GAMG	1.789370e-03	6.640990e-06	4	true
124           	smoothSolver	1.611670e-04	1.457900e-05	7	3.792170e-03	3.676120e-04	6	3.221210e-03	3.099260e-04	6	false	GAMG	1.763560e-03	1.748130e-05	3	true
125           	smoothSolver	1.556240e-04	1.382540e-05	7	3.675940e-03	3.504780e-04	6	3.127220e-03	2.951960e-04	6	false	GAMG	1.745200e-03	6.555050e-06	4	true
126           	smoothSolver	1.519490e-04	1.317200e-05	7	3.650100e-03	3.435670e-04	6	3.092460e-03	2.892490e-04	6	false	GAMG	1.713490e-03	1.625590e-05	3	true
127           	smoothSolver	1.467760e-04	1.236880e-05	7	3.544650e-03	3.255730e-04	6	3.004480e-03	2.757940e-04	6	false	GAMG	1.691780e-03	1.649940e-05	3	true
128           	smoothSolver	1.434360e-04	1.168660e-05	7	3.490810e-03	3.146040e-04	6	2.958970e-03	2.684640e-04	6	false	GAMG	1.662580e-03	1.651570e-05	3	true
129           	smoothSolver	1.401740e-04	1.107070e-05	7	3.431560e-03	3.052030e-04	6	2.917140e-03	2.608420e-04	6	false	GAMG	1.639320e-03	6.358070e-06	4	true
130           	smoothSolver	1.376350e-04	1.062910e-05	7	3.413240e-03	3.030550e-04	6	2.913450e-03	2.582280e-04	6	false	GAMG	1.617490e-03	1.590950e-05	3	true
131           	smoothSolver	1.331620e-04	1.025150e-05	7	3.303980e-03	2.907740e-04	6	2.826930e-03	2.468370e-04	6	false	GAMG	1.597540e-03	6.269070e-06	4	true
132           	smoothSolver	1.308250e-04	1.010540e-05	7	3.259610e-03	2.866490e-04	6	2.804240e-03	2.453000e-04	6	false	GAMG	1.576720e-03	1.539370e-05	3	true
133           	smoothSolver	1.271900e-04	9.927900e-06	7	3.137630e-03	2.746660e-04	6	2.707090e-03	2.355150e-04	6	false	GAMG	1.553490e-03	1.546170e-05	3	true
134           	smoothSolver	1.242790e-04	9.765500e-06	7	3.055690e-03	2.686380e-04	6	2.635490e-03	2.299270e-04	6	false	GAMG	1.531360e-03	1.476600e-05	3	true
135           	smoothSolver	1.222500e-04	9.621730e-06	7	2.981480e-03	2.631070e-04	6	2.562520e-03	2.253840e-04	6	false	GAMG	1.502230e-03	1.401390e-05	3	true
136           	smoothSolver	1.209840e-04	9.545880e-06	7	2.913030e-03	2.579660e-04	6	2.500400e-03	2.204010e-04	6	false	GAMG	1.472480e-03	1.352300e-05	3	true
137           	smoothSolver	1.191260e-04	9.494180e-06	7	2.844440e-03	2.523290e-04	6	2.428250e-03	2.148550e-04	6	false	GAMG	1.441830e-03	1.312760e-05	3	true
138           	smoothSolver	1.169030e-04	9.495570e-06	7	2.779340e-03	2.496400e-04	6	2.369020e-03	2.094620e-04	6	false	GAMG	1.412950e-03	1.296830e-05	3	true
139           	smoothSolver	1.143070e-04	9.499230e-06	7	2.714640e-03	2.455790e-04	6	2.303650e-03	2.030240e-04	6	false	GAMG	1.380090e-03	1.284060e-05	3	true
140           	smoothSolver	1.122550e-04	9.560490e-06	7	2.661810e-03	2.429960e-04	6	2.253320e-03	1.982160e-04	6	false	GAMG	1.352420e-03	1.294100e-05	3	true
141           	smoothSolver	1.105780e-04	9.558440e-06	7	2.600700e-03	2.382010e-04	6	2.214410e-03	1.950170e-04	6	false	GAMG	1.322490e-03	1.288670e-05	3	true
142           	smoothSolver	1.089640e-04	9.473600e-06	7	2.553670e-03	2.322630e-04	6	2.177830e-03	1.915160e-04	6	false	GAMG	1.297100e-03	1.282810e-05	3	true
143           	smoothSolver	1.069590e-04	9.321410e-06	7	2.488000e-03	2.251450e-04	6	2.133240e-03	1.878580e-04	6	false	GAMG	1.276810e-03	1.276420e-05	3	true
144           	smoothSolver	1.052130e-04	9.064460e-06	7	2.444480e-03	2.185620e-04	6	2.105330e-03	1.839850e-04	6	false	GAMG	1.262220e-03	1.254980e-05	3	true
145           	smoothSolver	1.033400e-04	8.722760e-06	7	2.400160e-03	2.113670e-04	6	2.072660e-03	1.790970e-04	6	false	GAMG	1.247350e-03	1.221780e-05	3	true
146           	smoothSolver	1.016720e-04	8.376820e-06	7	2.369180e-03	2.049360e-04	6	2.048830e-03	1.756960e-04	6	false	GAMG	1.240300e-03	1.192660e-05	3	true
147           	smoothSolver	1.001490e-04	8.072880e-06	7	2.340790e-03	1.996350e-04	6	2.032820e-03	1.731310e-04	6	false	GAMG	1.231540e-03	1.174350e-05	3	true
148           	smoothSolver	9.900500e-05	7.807160e-06	7	2.331000e-03	1.957030e-04	6	2.019650e-03	1.700720e-04	6	false	GAMG	1.222610e-03	1.167760e-05	3	true
149           	smoothSolver	9.757150e-05	7.569300e-06	7	2.305620e-03	1.911140e-04	6	2.000910e-03	1.673230e-04	6	false	GAMG	1.217920e-03	1.162840e-05	3	true
150           	smoothSolver	9.633380e-05	7.404650e-06	7	2.286700e-03	1.872830e-04	6	1.986620e-03	1.639500e-04	6	false	GAMG	1.209440e-03	1.151200e-05	3	true
151           	smoothSolver	9.446600e-05	7.228960e-06	7	2.253130e-03	1.843800e-04	6	1.956600e-03	1.599780e-04	6	false	GAMG	1.197490e-03	1.134210e-05	3	true
152           	smoothSolver	9.288660e-05	7.071430e-06	7	2.224170e-03	1.821560e-04	6	1.930880e-03	1.560640e-04	6	false	GAMG	1.186800e-03	1.100710e-05	3	true
153           	smoothSolver	9.115390e-05	6.896830e-06	7	2.194410e-03	1.807890e-04	6	1.897200e-03	1.525920e-04	6	false	GAMG	1.175230e-03	1.080160e-05	3	true
154           	smoothSolver	8.964800e-05	6.691060e-06	7	2.168410e-03	1.796490e-04	6	1.872660e-03	1.502840e-04	6	false	GAMG	1.165320e-03	1.077020e-05	3	true
155           	smoothSolver	8.799050e-05	6.517280e-06	7	2.138980e-03	1.777800e-04	6	1.846420e-03	1.482680e-04	6	false	GAMG	1.154150e-03	1.085580e-05	3	true
156           	smoothSolver	8.676850e-05	6.395860e-06	7	2.121600e-03	1.771240e-04	6	1.827360e-03	1.470600e-04	6	false	GAMG	1.142220e-03	1.079730e-05	3	true
157           	smoothSolver	8.579100e-05	6.335770e-06	7	2.104910e-03	1.772460e-04	6	1.805270e-03	1.459020e-04	6	false	GAMG	1.132070e-03	1.072200e-05	3	true
158           	smoothSolver	8.519350e-05	6.292270e-06	7	2.092020e-03	1.774450e-04	6	1.788350e-03	1.449940e-04	6	false	GAMG	1.125740e-03	1.064460e-05	3	true
159           	smoothSolver	8.537200e-05	6.330440e-06	7	2.091730e-03	1.786210e-04	6	1.782690e-03	1.462860e-04	6	false	GAMG	1.113340e-03	1.045140e-05	3	true
160           	smoothSolver	8.546960e-05	6.404720e-06	7	2.089370e-03	1.795450e-04	6	1.777130e-03	1.466610e-04	6	false	GAMG	1.103410e-03	1.037590e-05	3	true
161           	smoothSolver	8.549800e-05	6.466190e-06	7	2.089150e-03	1.815190e-04	6	1.769460e-03	1.486620e-04	6	false	GAMG	1.089170e-03	1.033590e-05	3	true
162           	smoothSolver	8.510440e-05	6.467580e-06	7	2.085390e-03	1.824670e-04	6	1.760530e-03	1.492850e-04	6	false	GAMG	1.076000e-03	1.033400e-05	3	true
163           	smoothSolver	8.436650e-05	6.427360e-06	7	2.070810e-03	1.827340e-04	6	1.751210e-03	1.511080e-04	6	false	GAMG	1.067530e-03	1.047380e-05	3	true
164           	smoothSolver	8.434410e-05	6.436380e-06	7	2.065460e-03	1.839670e-04	6	1.756100e-03	1.531260e-04	6	false	GAMG	1.051210e-03	1.043210e-05	3	true
165           	smoothSolver	8.355170e-05	6.408040e-06	7	2.049770e-03	1.845400e-04	6	1.739890e-03	1.539080e-04	6	false	GAMG	1.038050e-03	4.057970e-06	4	true
166           	smoothSolver	8.334290e-05	6.449150e-06	7	2.051400e-03	1.877390e-04	6	1.747460e-03	1.573900e-04	6	false	GAMG	1.026150e-03	9.909370e-06	3	true
167           	smoothSolver	8.220100e-05	6.458670e-06	7	2.009370e-03	1.862520e-04	6	1.716360e-03	1.560210e-04	6	false	GAMG	1.017340e-03	4.103900e-06	4	true
168           	smoothSolver	8.263660e-05	6.611430e-06	7	2.025930e-03	1.904160e-04	6	1.731740e-03	1.597110e-04	6	false	GAMG	1.005660e-03	9.837660e-06	3	true
169           	smoothSolver	8.175100e-05	6.683180e-06	7	1.989990e-03	1.892690e-04	6	1.703110e-03	1.588750e-04	6	false	GAMG	1.000060e-03	4.173160e-06	4	true
170           	smoothSolver	8.254370e-05	6.849610e-06	7	2.006330e-03	1.939740e-04	6	1.719660e-03	1.634590e-04	6	false	GAMG	9.882700e-04	9.824990e-06	3	true
171           	smoothSolver	8.201300e-05	6.953370e-06	7	1.972240e-03	1.934540e-04	6	1.692320e-03	1.624930e-04	6	false	GAMG	9.821980e-04	4.162560e-06	4	true
172           	smoothSolver	8.269090e-05	7.151180e-06	7	1.987200e-03	1.986510e-04	6	1.705950e-03	1.667930e-04	6	false	GAMG	9.740670e-04	3.857000e-06	4	true
173           	smoothSolver	8.321690e-05	7.313420e-06	7	1.983830e-03	1.490600e-04	7	1.699540e-03	1.680800e-04	6	false	GAMG	9.715780e-04	3.927220e-06	4	true
174           	smoothSolver	8.422620e-05	7.441680e-06	7	1.981800e-03	1.496050e-04	7	1.704390e-03	1.703250e-04	6	false	GAMG	9.671420e-04	3.954340e-06	4	true
175           	smoothSolver	8.460750e-05	7.548890e-06	7	1.972840e-03	1.499050e-04	7	1.707470e-03	1.275900e-04	7	false	GAMG	9.685800e-04	4.136500e-06	4	true
176           	smoothSolver	8.559460e-05	7.646140e-06	7	1.978190e-03	1.514280e-04	7	1.709780e-03	1.277700e-04	7	false	GAMG	9.645260e-04	4.137930e-06	4	true
177           	smoothSolver	8.568440e-05	7.692280e-06	7	1.978060e-03	1.528000e-04	7	1.700520e-03	1.274310e-04	7	false	GAMG	9.653690e-04	4.208440e-06	4	true
178           	smoothSolver	8.627630e-05	7.748630e-06	7	1.985140e-03	1.546860e-04	7	1.702110e-03	1.283830e-04	7	false	GAMG	9.686330e-04	4.263920e-06	4	true
179           	smoothSolver	8.695350e-05	7.847050e-06	7	1.987390e-03	1.567650e-04	7	1.711020e-03	1.296370e-04	7	false	GAMG	9.733490e-04	4.368850e-06	4	true
180           	smoothSolver	8.826610e-05	7.967530e-06	7	2.006420e-03	1.598490e-04	7	1.733160e-03	1.315250e-04	7	false	GAMG	9.746370e-04	4.392480e-06	4	true
181           	smoothSolver	8.862160e-05	8.074500e-06	7	2.013130e-03	1.622490e-04	7	1.736440e-03	1.324810e-04	7	false	GAMG	9.768880e-04	4.467340e-06	4	true
182           	smoothSolver	8.929350e-05	8.233600e-06	7	2.024940e-03	1.654870e-04	7	1.745170e-03	1.344470e-04	7	false	GAMG	9.771480e-04	4.472360e-06	4	true
183           	smoothSolver	8.931570e-05	8.380520e-06	7	2.031880e-03	1.686440e-04	7	1.746840e-03	1.360860e-04	7	false	GAMG	9.792570e-04	4.566420e-06	4	true
184           	smoothSolver	9.034970e-05	8.571050e-06	7	2.052210e-03	1.722060e-04	7	1.765120e-03	1.385380e-04	7	false	GAMG	9.790480e-04	4.586900e-06	4	true
185           	smoothSolver	9.125820e-05	8.749530e-06	7	2.065840e-03	1.747740e-04	7	1.776270e-03	1.406850e-04	7	false	GAMG	9.761720e-04	4.615690e-06	4	true
186           	smoothSolver	9.200730e-05	8.865060e-06	7	2.076910e-03	1.770680e-04	7	1.776590e-03	1.423270e-04	7	false	GAMG	9.753230e-04	4.651190e-06	4	true
187           	smoothSolver	9.263150e-05	8.954010e-06	7	2.081050e-03	1.787590e-04	7	1.780050e-03	1.440290e-04	7	false	GAMG	9.766990e-04	4.709700e-06	4	true
188           	smoothSolver	9.357030e-05	9.046660e-06	7	2.092310e-03	1.799290e-04	7	1.790410e-03	1.453920e-04	7	false	GAMG	9.754970e-04	4.744400e-06	4	true
189           	smoothSolver	9.409250e-05	9.136000e-06	7	2.084560e-03	1.797600e-04	7	1.783150e-03	1.454090e-04	7	false	GAMG	9.756980e-04	4.780700e-06	4	true
190           	smoothSolver	9.436400e-05	9.145830e-06	7	2.085570e-03	1.792710e-04	7	1.783410e-03	1.452270e-04	7	false	GAMG	9.748850e-04	4.778950e-06	4	true