/*--------------------------------*- C++ -*----------------------------------*\
| =========                 |                                                 |
| \\      /  F ield         | OpenFOAM: The Open Source CFD Toolbox           |
|  \\    /   O peration     | Version:  2512                                  |
|   \\  /    A nd           | Website:  www.openfoam.com                      |
|    \\/     M anipulation  |                                                 |
\*---------------------------------------------------------------------------*/
FoamFile
{
    version     2.0;
    format      ascii;
    arch        "LSB;label=32;scalar=64";
    class       volScalarField;
    location    "0.4";
    object      p;
}
// * * * * * * * * * * * * * * * * * * * * * * * * * * * * * * * * * * * * * //

dimensions      [0 2 -2 0 0 0 0];

internalField   nonuniform List<scalar> 
400
(
5.25094e-06
-0.00583196
-0.0129723
-0.0184234
-0.0204417
-0.0182484
-0.0117831
-0.0014914
0.0118318
0.0271461
0.0432441
0.0588254
0.0725834
0.0833149
0.09006
0.0922739
0.0900323
0.084252
0.0768832
0.0710619
0.00579008
-0.000218886
-0.00579724
-0.00953195
-0.0105871
-0.00842087
-0.00295927
0.00548247
0.016308
0.0287129
0.0417469
0.0543792
0.0655762
0.0743972
0.0801063
0.0823019
0.0810649
0.0770468
0.0712733
0.0653092
0.0133468
0.00502663
-0.000994556
-0.00442078
-0.00527112
-0.00326242
0.00160351
0.00902824
0.0185021
0.0293485
0.0407638
0.0518672
0.0617654
0.0696327
0.0748031
0.076874
0.0758373
0.0720834
0.0658107
0.0575227
0.0201517
0.00868411
0.00122542
-0.00266712
-0.00372162
-0.00188519
0.00273115
0.00978415
0.0187797
0.029094
0.0399906
0.0506523
0.0602308
0.0679135
0.0730006
0.0749987
0.0737623
0.0694547
0.0616131
0.0500894
0.0245177
0.00975757
0.000589818
-0.00398421
-0.00530057
-0.00350606
0.00117567
0.00833497
0.0174618
0.0279483
0.0390836
0.0500679
0.0600461
0.0681617
0.0736227
0.0757937
0.0743641
0.0692879
0.0595398
0.0445207
0.0251979
0.00713087
-0.00380152
-0.00905338
-0.0105096
-0.00849787
-0.00335509
0.00443051
0.0143137
0.0256786
0.0378126
0.0499013
0.0610452
0.0702994
0.0767304
0.079512
0.0781327
0.0723311
0.0605579
0.0418692
0.0211184
-0.00028503
-0.0129332
-0.0187041
-0.0200262
-0.0174109
-0.0113157
-0.00231775
0.0089915
0.0219763
0.0359088
0.0499426
0.0631093
0.0743414
0.0825171
0.0865637
0.085713
0.0794438
0.0656436
0.0430454
0.0111737
-0.0136442
-0.0278724
-0.033847
-0.0345984
-0.0308531
-0.023209
-0.0123421
0.00110695
0.0164849
0.0330524
0.0499322
0.0660806
0.0802857
0.0911953
0.0974231
0.0978603
0.0916312
0.0759244
0.0490831
-0.00592872
-0.0342956
-0.0498652
-0.0555386
-0.055083
-0.0495086
-0.0395881
-0.0261089
-0.00975373
0.00882515
0.0289018
0.0495927
0.069795
0.0881502
0.103041
0.112693
0.115538
0.110184
0.0928674
0.0613682
-0.0318084
-0.0639082
-0.0804087
-0.0849935
-0.0824105
-0.0740704
-0.0609739
-0.0440307
-0.0239467
-0.00133338
0.0231476
0.0486613
0.0740938
0.097968
0.118389
0.133115
0.139971
0.136807
0.118479
0.0818764
-0.068604
-0.104638
-0.121332
-0.123572
-0.117503
-0.105117
-0.0877096
-0.0663181
-0.0416308
-0.0141506
0.0156092
0.046955
0.0788551
0.10979
0.137616
0.159573
0.172704
0.17376
0.155563
0.113492
-0.119318
-0.159393
-0.174895
-0.172733
-0.161132
-0.142917
-0.119749
-0.0927683
-0.0625699
-0.0294412
0.00637845
0.0444772
0.0840563
0.123701
0.161129
0.193071
0.215639
0.22405
0.208094
0.160522
-0.188512
-0.232277
-0.243911
-0.233918
-0.213676
-0.187141
-0.156361
-0.122492
-0.0858894
-0.0464643
-0.0040073
0.0415448
0.0898459
0.139829
0.189314
0.234674
0.271039
0.291626
0.281783
0.229618
-0.283816
-0.329331
-0.331792
-0.308246
-0.27469
-0.236426
-0.195753
-0.1536
-0.109831
-0.0637363
-0.0144289
0.0388722
0.0965618
0.158281
0.222373
0.285275
0.341358
0.381522
0.384937
0.331611
-0.419115
-0.45967
-0.442294
-0.395758
-0.342114
-0.287729
-0.234608
-0.182922
-0.131601
-0.0789756
-0.0232032
0.0374875
0.104566
0.178849
0.259869
0.344967
0.428581
0.499629
0.529654
0.485095
-0.620308
-0.636703
-0.578609
-0.494168
-0.411233
-0.335653
-0.267776
-0.205972
-0.14753
-0.0893735
-0.0284138
0.0383637
0.113825
0.200492
0.299994
0.412036
0.533015
0.651711
0.732704
0.722045
-0.935785
-0.878457
-0.741732
-0.597968
-0.474391
-0.372652
-0.288862
-0.217755
-0.153944
-0.0924529
-0.0287043
0.0417123
0.123284
0.220742
0.338949
0.482181
0.652056
0.841406
1.01522
1.09719
-1.47722
-1.20582
-0.920585
-0.691602
-0.517373
-0.387569
-0.290081
-0.213348
-0.148126
-0.0872091
-0.0245628
0.0454821
0.128974
0.23312
0.367159
0.542772
0.771553
1.0595
1.40242
1.73089
-2.54621
-1.62525
-1.04413
-0.711618
-0.496091
-0.352296
-0.254685
-0.183689
-0.126231
-0.0736186
-0.0192521
0.0428392
0.119309
0.218932
0.355015
0.548303
0.826989
1.2362
1.90602
2.93142
-4.37956
-2.04003
-0.972831
-0.563391
-0.357739
-0.239977
-0.170002
-0.123707
-0.0874328
-0.0534839
-0.0166522
0.0276462
0.0845702
0.161659
0.272294
0.442001
0.718323
1.22491
2.40647
4.86184
)
;

boundaryField
{
    movingWall
    {
        type            zeroGradient;
    }
    fixedWalls
    {
        type            zeroGradient;
    }
    frontAndBack
    {
        type            empty;
    }
}


// ************************************************************************* //
