/*--------------------------------*- C++ -*----------------------------------*\
| =========                 |                                                 |
| \\      /  F ield         | OpenFOAM: The Open Source CFD Toolbox           |
|  \\    /   O peration     | Version:  2512                                  |
|   \\  /    A nd           | Website:  www.openfoam.com                      |
|    \\/     M anipulation  |                                                 |
\*---------------------------------------------------------------------------*/
FoamFile
{
    version     2.0;
    format      ascii;
    arch        "LSB;label=32;scalar=64";
    class       surfaceScalarField;
    location    "0.4";
    object      phi;
}
// * * * * * * * * * * * * * * * * * * * * * * * * * * * * * * * * * * * * * //

dimensions      [0 3 -1 0 0 0 0];

oriented        oriented;

internalField   nonuniform List<scalar> 
760
(
1.42359e-08
-1.42765e-08
-2.22371e-08
3.6473e-08
-1.14277e-07
9.204e-08
-2.45493e-07
1.31216e-07
-3.96098e-07
1.50605e-07
-5.47369e-07
1.51271e-07
-6.83196e-07
1.35827e-07
-7.90669e-07
1.07473e-07
-8.60213e-07
6.95441e-08
-8.85646e-07
2.54325e-08
-8.64323e-07
-2.13236e-08
-7.97389e-07
-6.69338e-08
-6.90082e-07
-1.07306e-07
-5.51967e-07
-1.38115e-07
-3.96936e-07
-1.55031e-07
-2.42744e-07
-1.54192e-07
-1.0974e-07
-1.33004e-07
-1.8444e-08
-9.12959e-08
1.57059e-08
-3.41499e-08
1.57061e-08
-3.42444e-08
1.99679e-08
-1.80391e-07
1.8262e-07
-4.34019e-07
3.45668e-07
-7.64458e-07
4.61656e-07
-1.13222e-06
5.18371e-07
-1.49724e-06
5.1629e-07
-1.82332e-06
4.61908e-07
-2.08051e-06
3.6466e-07
-2.24624e-06
2.35274e-07
-2.306e-06
8.51905e-08
-2.25386e-06
-7.34662e-08
-2.09301e-06
-2.27784e-07
-1.83622e-06
-3.64088e-07
-1.50602e-06
-4.68322e-07
-1.13407e-06
-5.26974e-07
-7.59531e-07
-5.28734e-07
-4.25422e-07
-4.67114e-07
-1.72704e-07
-3.44013e-07
-3.08404e-08
-1.76014e-07
-1.51343e-08
-9.2206e-08
1.12174e-07
-3.56995e-07
4.47408e-07
-7.64568e-07
7.53242e-07
-1.2685e-06
9.65585e-07
-1.8147e-06
1.06458e-06
-2.34904e-06
1.05063e-06
-2.82242e-06
9.35287e-07
-3.19392e-06
7.36159e-07
-3.43258e-06
4.73932e-07
-3.51847e-06
1.71086e-07
-3.44353e-06
-1.48412e-07
-3.21221e-06
-4.59103e-07
-2.84206e-06
-7.34238e-07
-2.36376e-06
-9.46618e-07
-1.82028e-06
-1.07045e-06
-1.26447e-06
-1.08455e-06
-7.54515e-07
-9.77069e-07
-3.4696e-07
-7.51568e-07
-8.7311e-08
-4.35662e-07
-1.02445e-07
-1.45198e-07
2.57371e-07
-5.25451e-07
8.27662e-07
-1.08162e-06
1.30941e-06
-1.7475e-06
1.63146e-06
-2.45431e-06
1.77139e-06
-3.13634e-06
1.73266e-06
-3.73525e-06
1.53419e-06
-4.20286e-06
1.20377e-06
-4.50286e-06
7.73934e-07
-4.61186e-06
2.80084e-07
-4.52018e-06
-2.40091e-07
-4.23265e-06
-7.46633e-07
-3.76928e-06
-1.19761e-06
-3.16556e-06
-1.55034e-06
-2.47181e-06
-1.7642e-06
-1.75102e-06
-1.80534e-06
-1.07448e-06
-1.65361e-06
-5.15115e-07
-1.31093e-06
-1.39297e-07
-8.1148e-07
-2.41743e-07
-1.93601e-07
4.50973e-07
-6.84984e-07
1.31904e-06
-1.38559e-06
2.01002e-06
-2.2072e-06
2.45306e-06
-3.06541e-06
2.6296e-06
-3.8837e-06
2.55096e-06
-4.59641e-06
2.2469e-06
-5.15048e-06
1.75783e-06
-5.50633e-06
1.12978e-06
-5.63839e-06
4.12147e-07
-5.53561e-06
-3.42871e-07
-5.20222e-06
-1.08002e-06
-4.65873e-06
-1.7411e-06
-3.94281e-06
-2.26626e-06
-3.10958e-06
-2.59743e-06
-2.2304e-06
-2.68451e-06
-1.38957e-06
-2.49444e-06
-6.78464e-07
-2.02204e-06
-1.87752e-07
-1.30219e-06
-4.29495e-07
-2.3993e-07
6.90903e-07
-8.40321e-07
1.91944e-06
-1.68323e-06
2.85294e-06
-2.65697e-06
3.4268e-06
-3.66073e-06
3.63335e-06
-4.60764e-06
3.49787e-06
-5.4262e-06
3.06547e-06
-6.0604e-06
2.39203e-06
-6.46917e-06
1.53855e-06
-6.62585e-06
5.68826e-07
-6.51811e-06
-4.50618e-07
-6.14857e-06
-1.44955e-06
-5.53631e-06
-2.35336e-06
-4.7187e-06
-3.08387e-06
-3.75327e-06
-3.56287e-06
-2.71832e-06
-3.71946e-06
-1.71144e-06
-3.50133e-06
-8.44608e-07
-2.88887e-06
-2.36159e-07
-1.91064e-06
-6.65654e-07
-2.86727e-07
9.7763e-07
-9.97039e-07
2.62975e-06
-1.98199e-06
3.83789e-06
-3.10482e-06
4.54963e-06
-4.24779e-06
4.77633e-06
-5.31463e-06
4.5647e-06
-6.2299e-06
3.98074e-06
-6.93694e-06
3.09907e-06
-7.39523e-06
1.99685e-06
-7.57835e-06
7.51941e-07
-7.47287e-06
-5.56099e-07
-7.0788e-06
-1.84362e-06
-6.41157e-06
-3.0206e-06
-5.50528e-06
-3.99016e-06
-4.41678e-06
-4.65136e-06
-3.22915e-06
-4.90709e-06
-2.0528e-06
-4.67768e-06
-1.02245e-06
-3.91921e-06
-2.88249e-07
-2.64485e-06
-9.53902e-07
-3.36302e-07
1.31393e-06
-1.1603e-06
3.45374e-06
-2.28788e-06
4.96548e-06
-3.5548e-06
5.81655e-06
-4.82638e-06
6.04791e-06
-5.9988e-06
5.73712e-06
-6.99574e-06
4.97769e-06
-7.7632e-06
3.86653e-06
-8.26415e-06
2.49779e-06
-8.47425e-06
9.62046e-07
-8.37957e-06
-6.50775e-07
-7.97649e-06
-2.2467e-06
-7.27416e-06
-3.72293e-06
-6.29954e-06
-4.96477e-06
-5.10429e-06
-5.84661e-06
-3.77221e-06
-6.23918e-06
-2.42466e-06
-6.02523e-06
-1.22062e-06
-5.12325e-06
-3.47657e-07
-3.51781e-06
-1.30156e-06
-3.90911e-07
1.70484e-06
-1.33477e-06
4.3976e-06
-2.60478e-06
6.23549e-06
-4.00567e-06
7.21744e-06
-5.38649e-06
7.42872e-06
-6.63939e-06
6.99002e-06
-7.69205e-06
6.03035e-06
-8.49807e-06
4.67255e-06
-9.02799e-06
3.02772e-06
-9.26247e-06
1.19653e-06
-9.18817e-06
-7.25079e-07
-8.79697e-06
-2.6379e-06
-8.08883e-06
-4.43107e-06
-7.07848e-06
-5.97512e-06
-5.80581e-06
-7.11928e-06
-4.3486e-06
-7.69638e-06
-2.83448e-06
-7.53935e-06
-1.4469e-06
-6.51083e-06
-4.1802e-07
-4.54668e-06
-1.71958e-06
-4.53383e-07
2.15823e-06
-1.52551e-06
5.46973e-06
-2.9346e-06
7.64458e-06
-4.44975e-06
8.73259e-06
-5.90591e-06
8.88488e-06
-7.19738e-06
8.28148e-06
-8.26321e-06
7.09618e-06
-9.07161e-06
5.48095e-06
-9.60641e-06
3.56251e-06
-9.85711e-06
1.44723e-06
-9.8129e-06
-7.69287e-07
-9.46081e-06
-2.98999e-06
-8.78849e-06
-5.10339e-06
-7.79236e-06
-6.97126e-06
-6.49157e-06
-8.42007e-06
-4.94739e-06
-9.24057e-06
-3.28465e-06
-9.20208e-06
-1.70839e-06
-8.08709e-06
-5.0347e-07
-5.75161e-06
-2.22305e-06
-5.28233e-07
2.68646e-06
-1.73942e-06
6.68091e-06
-3.27759e-06
9.18275e-06
-4.87115e-06
1.03262e-05
-6.3465e-06
1.03602e-05
-7.6103e-06
9.54529e-06
-8.62384e-06
8.10972e-06
-9.37918e-06
6.23629e-06
-9.88048e-06
4.06381e-06
-1.0131e-05
1.69775e-06
-1.01252e-05
-7.75075e-07
-9.84571e-06
-3.2695e-06
-9.2653e-06
-5.6838e-06
-8.35558e-06
-7.88098e-06
-7.10392e-06
-9.67174e-06
-5.53996e-06
-1.08045e-05
-3.77009e-06
-1.09719e-05
-2.01177e-06
-9.84542e-06
-6.09521e-07
-7.15385e-06
-2.83257e-06
-6.23533e-07
3.30999e-06
-1.98706e-06
8.04444e-06
-3.63142e-06
1.08271e-05
-5.24135e-06
1.19361e-05
-6.64698e-06
1.17659e-05
-7.78391e-06
1.06822e-05
-8.65048e-06
8.9763e-06
-9.27381e-06
6.85961e-06
-9.68605e-06
4.47606e-06
-9.90933e-06
1.92102e-06
-9.94671e-06
-7.37694e-07
-9.77799e-06
-3.43821e-06
-9.36021e-06
-6.10158e-06
-8.63485e-06
-8.60634e-06
-7.54554e-06
-1.0761e-05
-6.07072e-06
-1.22793e-05
-4.27351e-06
-1.27692e-05
-2.36313e-06
-1.17558e-05
-7.44565e-07
-8.77241e-06
-3.57713e-06
-7.5395e-07
4.06394e-06
-2.28396e-06
9.57445e-06
-3.98642e-06
1.25296e-05
-5.50845e-06
1.34581e-05
-6.709e-06
1.29664e-05
-7.57802e-06
1.15512e-05
-8.16959e-06
9.56787e-06
-8.55722e-06
7.24725e-06
-8.80736e-06
4.7262e-06
-8.96469e-06
2.07835e-06
-9.04398e-06
-6.58404e-07
-9.0253e-06
-3.45689e-06
-8.85205e-06
-6.27483e-06
-8.43415e-06
-9.02424e-06
-7.66211e-06
-1.15331e-05
-6.44112e-06
-1.35003e-05
-4.75541e-06
-1.44549e-05
-2.76615e-06
-1.37451e-05
-9.2223e-07
-1.06163e-05
-4.49936e-06
-9.45233e-07
5.00918e-06
-2.64814e-06
1.12774e-05
-4.31038e-06
1.41918e-05
-5.57266e-06
1.47204e-05
-6.37013e-06
1.37639e-05
-6.78283e-06
1.19639e-05
-6.94014e-06
9.72518e-06
-6.96945e-06
7.27655e-06
-6.97255e-06
4.7293e-06
-7.01629e-06
2.12209e-06
-7.12838e-06
-5.46313e-07
-7.29349e-06
-3.29178e-06
-7.44828e-06
-6.12004e-06
-7.47741e-06
-8.99511e-06
-7.21731e-06
-1.17932e-05
-6.48199e-06
-1.42356e-05
-5.13265e-06
-1.58042e-05
-3.21448e-06
-1.56632e-05
-1.16439e-06
-1.26664e-05
-5.66375e-06
-1.23794e-06
6.24711e-06
-3.08326e-06
1.31227e-05
-4.50723e-06
1.56158e-05
-5.23401e-06
1.54472e-05
-5.35487e-06
1.38847e-05
-5.08161e-06
1.16907e-05
-4.63078e-06
9.27435e-06
-4.17922e-06
6.825e-06
-3.85437e-06
4.40445e-06
-3.73707e-06
2.00479e-06
-3.8652e-06
-4.18191e-07
-4.2327e-06
-2.92428e-06
-4.7821e-06
-5.57064e-06
-5.391e-06
-8.38621e-06
-5.85831e-06
-1.13259e-05
-5.90625e-06
-1.41877e-05
-5.23246e-06
-1.6478e-05
-3.66633e-06
-1.72294e-05
-1.50086e-06
-1.48319e-05
-7.16462e-06
-1.67612e-06
7.92323e-06
-3.51445e-06
1.4961e-05
-4.31536e-06
1.64167e-05
-4.08884e-06
1.52207e-05
-3.19312e-06
1.2989e-05
-1.9989e-06
1.04965e-05
-7.95376e-07
8.07083e-06
2.19043e-07
5.81058e-06
9.17894e-07
3.7056e-06
1.22522e-06
1.69747e-06
1.10163e-06
-2.94604e-07
5.40593e-07
-2.36324e-06
-4.23424e-07
-4.60662e-06
-1.69308e-06
-7.11656e-06
-3.07293e-06
-9.94602e-06
-4.23136e-06
-1.30293e-05
-4.69636e-06
-1.6013e-05
-3.96891e-06
-1.79568e-05
-1.94777e-06
-1.6853e-05
-9.11239e-06
-2.23815e-06
1.01614e-05
-3.59402e-06
1.63169e-05
-3.07882e-06
1.59015e-05
-1.34456e-06
1.34864e-05
8.96355e-07
1.07481e-05
3.15431e-06
8.2385e-06
5.13747e-06
6.08767e-06
6.68805e-06
4.26e-06
7.72517e-06
2.66848e-06
8.20585e-06
1.21678e-06
8.10311e-06
-1.91866e-07
7.39817e-06
-1.6583e-06
6.08589e-06
-3.29434e-06
4.19807e-06
-5.22874e-06
1.85284e-06
-7.60079e-06
-6.63335e-07
-1.05131e-05
-2.79455e-06
-1.38818e-05
-3.66747e-06
-1.70839e-05
-2.42051e-06
-1.81e-05
-1.15329e-05
-2.59898e-06
1.27604e-05
-2.1888e-06
1.59067e-05
7.17015e-07
1.29957e-05
4.46845e-06
9.73498e-06
8.13206e-06
7.08448e-06
1.13004e-05
5.07016e-06
1.3828e-05
3.56006e-06
1.56871e-05
2.40093e-06
1.68907e-05
1.46487e-06
1.74539e-05
6.53595e-07
1.73753e-05
-1.13275e-07
1.66293e-05
-9.12305e-07
1.51658e-05
-1.83085e-06
1.29219e-05
-2.98488e-06
9.85999e-06
-4.53884e-06
6.06002e-06
-6.71313e-06
1.9098e-06
-9.73157e-06
-1.56713e-06
-1.3607e-05
-2.48616e-06
-1.71809e-05
-1.40191e-05
-7.41231e-07
1.35016e-05
4.0892e-06
1.10763e-05
1.02979e-05
6.78697e-06
1.57927e-05
4.24018e-06
2.01567e-05
2.72049e-06
2.34567e-05
1.77019e-06
2.58595e-05
1.15721e-06
2.75204e-05
7.40061e-07
2.8553e-05
4.32284e-07
2.90253e-05
1.81227e-07
2.89611e-05
-4.9036e-08
2.83375e-05
-2.88702e-07
2.70804e-05
-5.73743e-07
2.50535e-05
-9.57963e-07
2.20502e-05
-1.53558e-06
1.78146e-05
-2.47747e-06
1.21729e-05
-4.08986e-06
5.48702e-06
-6.92113e-06
-8.11674e-08
-1.16128e-05
-1.41002e-05
1.35016e-05
2.45779e-05
3.13648e-05
3.5605e-05
3.83255e-05
4.00957e-05
4.12529e-05
4.1993e-05
4.24252e-05
4.26065e-05
4.25574e-05
4.22687e-05
4.1695e-05
4.0737e-05
3.92014e-05
3.6724e-05
3.26341e-05
2.5713e-05
1.41002e-05
)
;

boundaryField
{
    movingWall
    {
        type            calculated;
        value           uniform 0;
    }
    fixedWalls
    {
        type            calculated;
        value           uniform 0;
    }
    frontAndBack
    {
        type            empty;
    }
}


// ************************************************************************* //
