/*--------------------------------*- C++ -*----------------------------------*\
| =========                 |                                                 |
| \\      /  F ield         | OpenFOAM: The Open Source CFD Toolbox           |
|  \\    /   O peration     | Version:  2512                                  |
|   \\  /    A nd           | Website:  www.openfoam.com                      |
|    \\/     M anipulation  |                                                 |
\*---------------------------------------------------------------------------*/
FoamFile
{
    version     2.0;
    format      ascii;
    arch        "LSB;label=32;scalar=64";
    class       volVectorField;
    location    "0.4";
    object      U;
}
// * * * * * * * * * * * * * * * * * * * * * * * * * * * * * * * * * * * * * //

dimensions      [0 1 -1 0 0 0 0];

internalField   nonuniform List<vector> 
400
(
(0.000254268 -0.000250999 0)
(0.000142368 0.000110417 0)
(-0.00117675 0.000562652 0)
(-0.00348117 0.000882532 0)
(-0.00637746 0.00104299 0)
(-0.00946948 0.001059 0)
(-0.012403 0.000955342 0)
(-0.0148851 0.000758416 0)
(-0.0166897 0.000493299 0)
(-0.0176585 0.000184018 0)
(-0.0177024 -0.000144955 0)
(-0.0168052 -0.000467224 0)
(-0.0150302 -0.000753548 0)
(-0.0125251 -0.000971863 0)
(-0.00952633 -0.00108851 0)
(-0.00635491 -0.00107133 0)
(-0.00340065 -0.000895706 0)
(-0.00108602 -0.000554515 0)
(0.000197606 -8.96077e-05 0)
(0.000268602 0.00026278 0)
(-7.60477e-05 -0.000170182 0)
(-0.00161025 0.00164396 0)
(-0.00569343 0.00361525 0)
(-0.0117195 0.00503221 0)
(-0.0188927 0.00574039 0)
(-0.0264009 0.00575736 0)
(-0.0334691 0.00516908 0)
(-0.0394266 0.00409042 0)
(-0.0437436 0.00264623 0)
(-0.0460466 0.00096633 0)
(-0.0461289 -0.000812949 0)
(-0.0439608 -0.00254595 0)
(-0.0397007 -0.00407676 0)
(-0.0337023 -0.00524264 0)
(-0.0265132 -0.00588377 0)
(-0.0188547 -0.00586202 0)
(-0.0115672 -0.00509214 0)
(-0.00551373 -0.00358743 0)
(-0.00149191 -0.00155855 0)
(-4.13296e-05 0.000228144 0)
(-0.000526255 0.00109133 0)
(-0.00370903 0.00573692 0)
(-0.0105892 0.0102246 0)
(-0.0199923 0.0134076 0)
(-0.0307653 0.0149462 0)
(-0.0418227 0.0148388 0)
(-0.0521203 0.0132557 0)
(-0.0607447 0.0104561 0)
(-0.0669698 0.00674189 0)
(-0.070283 0.00243872 0)
(-0.0704008 -0.00210672 0)
(-0.0672844 -0.00652563 0)
(-0.0611523 -0.0104293 0)
(-0.0524884 -0.0134211 0)
(-0.0420369 -0.0151234 0)
(-0.0307739 -0.0152254 0)
(-0.0198293 -0.0135557 0)
(-0.0103637 -0.0101789 0)
(-0.00354616 -0.00555168 0)
(-0.000474573 -0.000948491 0)
(-0.000925055 0.00347966 0)
(-0.00568829 0.0122216 0)
(-0.0153021 0.0199221 0)
(-0.0279173 0.0251979 0)
(-0.0419858 0.027597 0)
(-0.0561796 0.0271374 0)
(-0.0692527 0.0241088 0)
(-0.0801264 0.0189537 0)
(-0.0879489 0.0121953 0)
(-0.0921194 0.00440477 0)
(-0.0923038 -0.00380831 0)
(-0.0884503 -0.0117969 0)
(-0.0808049 -0.0188823 0)
(-0.0699226 -0.0243763 0)
(-0.0566688 -0.0276274 0)
(-0.0421944 -0.0281014 0)
(-0.0278565 -0.0254973 0)
(-0.0150936 -0.0198918 0)
(-0.00550176 -0.0119285 0)
(-0.000858463 -0.00322463 0)
(-0.00127484 0.00687746 0)
(-0.00753193 0.0209546 0)
(-0.0198051 0.0325107 0)
(-0.0355352 0.0401031 0)
(-0.0527435 0.04329 0)
(-0.0698588 0.0421924 0)
(-0.0854637 0.0372771 0)
(-0.0983609 0.0292126 0)
(-0.10762 0.0187767 0)
(-0.112589 0.00681316 0)
(-0.112897 -0.00578093 0)
(-0.108474 -0.0180551 0)
(-0.0995614 -0.0290115 0)
(-0.0867382 -0.0376325 0)
(-0.0709345 -0.0429444 0)
(-0.0534292 -0.0441279 0)
(-0.035784 -0.0406778 0)
(-0.0197349 -0.0325921 0)
(-0.00736624 -0.0205911 0)
(-0.00119953 -0.00649764 0)
(-0.0016024 0.0112151 0)
(-0.00931277 0.0318752 0)
(-0.0242092 0.0479518 0)
(-0.0430024 0.0580713 0)
(-0.0632561 0.0619363 0)
(-0.0831519 0.0598803 0)
(-0.101123 0.0526274 0)
(-0.115891 0.0411249 0)
(-0.126487 0.0264361 0)
(-0.132236 0.00969199 0)
(-0.132747 -0.00791712 0)
(-0.12792 -0.0251326 0)
(-0.117963 -0.0406251 0)
(-0.103431 -0.0530188 0)
(-0.0852658 -0.060965 0)
(-0.0648328 -0.0632783 0)
(-0.0438838 -0.05914 0)
(-0.0244768 -0.0483431 0)
(-0.00924854 -0.0315575 0)
(-0.00153239 -0.0107277 0)
(-0.00193375 0.0164763 0)
(-0.0111146 0.0449743 0)
(-0.0286497 0.0662324 0)
(-0.0504784 0.0790578 0)
(-0.0736824 0.0834445 0)
(-0.0962007 0.0800724 0)
(-0.116348 0.0700228 0)
(-0.132811 0.0545833 0)
(-0.144627 0.0351302 0)
(-0.151137 0.0130833 0)
(-0.151944 -0.0100876 0)
(-0.14691 -0.0328333 0)
(-0.136175 -0.0534996 0)
(-0.120217 -0.0703358 0)
(-0.0999269 -0.0815631 0)
(-0.0766964 -0.0855296 0)
(-0.0524369 -0.0809602 0)
(-0.029543 -0.0672743 0)
(-0.011276 -0.0449385 0)
(-0.00189325 -0.0159501 0)
(-0.0022924 0.0226936 0)
(-0.0130167 0.0602999 0)
(-0.0332492 0.0873612 0)
(-0.0580768 0.102993 0)
(-0.08407 0.107662 0)
(-0.108948 0.102558 0)
(-0.130962 0.0892416 0)
(-0.148828 0.0694085 0)
(-0.161659 0.0447696 0)
(-0.16886 0.017018 0)
(-0.170055 -0.012135 0)
(-0.165063 -0.040894 0)
(-0.153921 -0.0673141 0)
(-0.136961 -0.0892716 0)
(-0.114934 -0.104509 0)
(-0.0891682 -0.110792 0)
(-0.0616654 -0.106207 0)
(-0.0351452 -0.0895747 0)
(-0.0135759 -0.060947 0)
(-0.00231771 -0.0222752 0)
(-0.00270242 0.0299447 0)
(-0.0150976 0.077954 0)
(-0.038112 0.111352 0)
(-0.0658438 0.129744 0)
(-0.0943201 0.134312 0)
(-0.121091 0.126969 0)
(-0.144435 0.109898 0)
(-0.163204 0.0852786 0)
(-0.176678 0.0551643 0)
(-0.184397 0.0214845 0)
(-0.186047 -0.0138767 0)
(-0.181411 -0.0489577 0)
(-0.170383 -0.0815931 0)
(-0.153069 -0.109321 0)
(-0.129959 -0.129377 0)
(-0.102175 -0.138822 0)
(-0.0716818 -0.134879 0)
(-0.0414622 -0.115462 0)
(-0.0162752 -0.0798906 0)
(-0.0028438 -0.0298859 0)
(-0.00319649 0.0383559 0)
(-0.0174534 0.0980847 0)
(-0.0433371 0.138182 0)
(-0.0737504 0.159038 0)
(-0.104151 0.162894 0)
(-0.132022 0.152667 0)
(-0.155816 0.131337 0)
(-0.174669 0.101636 0)
(-0.188158 0.0659543 0)
(-0.196057 0.0263866 0)
(-0.198175 -0.0151152 0)
(-0.194272 -0.056547 0)
(-0.184069 -0.0956421 0)
(-0.167353 -0.129687 0)
(-0.144201 -0.155418 0)
(-0.115325 -0.169089 0)
(-0.0824356 -0.166791 0)
(-0.0486293 -0.145113 0)
(-0.019512 -0.102152 0)
(-0.00351977 -0.0390414 0)
(-0.00383034 0.0481232 0)
(-0.0202303 0.120886 0)
(-0.0490413 0.167742 0)
(-0.0816786 0.190357 0)
(-0.113043 0.192549 0)
(-0.140736 0.178609 0)
(-0.163611 0.152508 0)
(-0.181299 0.117589 0)
(-0.193837 0.0765314 0)
(-0.201351 0.0314909 0)
(-0.203846 -0.015662 0)
(-0.201098 -0.0630529 0)
(-0.192635 -0.108492 0)
(-0.177843 -0.149169 0)
(-0.156208 -0.18141 0)
(-0.127764 -0.200597 0)
(-0.0936314 -0.201411 0)
(-0.0567239 -0.178558 0)
(-0.0234583 -0.128161 0)
(-0.00441805 -0.0500957 0)
(-0.00470877 0.0595633 0)
(-0.023675 0.146607 0)
(-0.0553761 0.199744 0)
(-0.0893669 0.222779 0)
(-0.120111 0.221883 0)
(-0.145665 0.203182 0)
(-0.16562 0.171836 0)
(-0.180362 0.131807 0)
(-0.190573 0.0859665 0)
(-0.196855 0.0363728 0)
(-0.199493 -0.0153745 0)
(-0.198326 -0.0677467 0)
(-0.192706 -0.118869 0)
(-0.18156 -0.166078 0)
(-0.163629 -0.205484 0)
(-0.137949 -0.231651 0)
(-0.104581 -0.237609 0)
(-0.065722 -0.215505 0)
(-0.0283505 -0.15835 0)
(-0.00566015 -0.0635395 0)
(-0.00603188 0.0732176 0)
(-0.0282025 0.175548 0)
(-0.0625006 0.233554 0)
(-0.0962461 0.254734 0)
(-0.123845 0.248723 0)
(-0.144387 0.224021 0)
(-0.158661 0.187104 0)
(-0.1681 0.142459 0)
(-0.174195 0.0929661 0)
(-0.178113 0.0403754 0)
(-0.180479 -0.0142031 0)
(-0.181259 -0.0698263 0)
(-0.179687 -0.125215 0)
(-0.174259 -0.178182 0)
(-0.16288 -0.224971 0)
(-0.143299 -0.259579 0)
(-0.113922 -0.273311 0)
(-0.0753802 -0.255041 0)
(-0.0345239 -0.193066 0)
(-0.00745992 -0.080087 0)
(-0.00817101 0.0900338 0)
(-0.0344585 0.207999 0)
(-0.0704043 0.267863 0)
(-0.101012 0.283593 0)
(-0.121563 0.269804 0)
(-0.133099 0.237838 0)
(-0.138156 0.195403 0)
(-0.139458 0.147232 0)
(-0.139364 0.0959074 0)
(-0.139593 0.0426161 0)
(-0.141107 -0.0122381 0)
(-0.144053 -0.0685136 0)
(-0.147665 -0.125801 0)
(-0.150163 -0.182774 0)
(-0.148711 -0.236325 0)
(-0.13963 -0.28044 0)
(-0.119081 -0.305008 0)
(-0.0849251 -0.295129 0)
(-0.0424076 -0.232343 0)
(-0.0101879 -0.100816 0)
(-0.0117523 0.111627 0)
(-0.0432449 0.243933 0)
(-0.0782941 0.300009 0)
(-0.100619 0.30508 0)
(-0.108343 0.280456 0)
(-0.105726 0.240382 0)
(-0.0975273 0.193282 0)
(-0.0877707 0.14355 0)
(-0.0795023 0.0930352 0)
(-0.0747877 0.0420921 0)
(-0.0748059 -0.00973403 0)
(-0.0798938 -0.0632185 0)
(-0.0894652 -0.118999 0)
(-0.101789 -0.176965 0)
(-0.113685 -0.235289 0)
(-0.1203 -0.288879 0)
(-0.115258 -0.32718 0)
(-0.0922656 -0.331761 0)
(-0.0522975 -0.275361 0)
(-0.0144103 -0.12733 0)
(-0.0175607 0.140673 0)
(-0.0547869 0.282101 0)
(-0.0827981 0.324685 0)
(-0.0880796 0.312463 0)
(-0.0751089 0.274455 0)
(-0.0525942 0.226773 0)
(-0.0274635 0.177292 0)
(-0.00452085 0.129138 0)
(0.0130914 0.0829135 0)
(0.0234315 0.0379449 0)
(0.0253892 -0.00707826 0)
(0.0184973 -0.0537659 0)
(0.00296912 -0.103761 0)
(-0.0200078 -0.158329 0)
(-0.0476967 -0.217508 0)
(-0.0749952 -0.27836 0)
(-0.0935586 -0.331778 0)
(-0.0920886 -0.357641 0)
(-0.0633136 -0.319234 0)
(-0.0206471 -0.161985 0)
(-0.0255491 0.181821 0)
(-0.0659038 0.317645 0)
(-0.0733695 0.331291 0)
(-0.0480873 0.295392 0)
(-0.00559231 0.244217 0)
(0.0412041 0.192388 0)
(0.0846393 0.145055 0)
(0.120523 0.102977 0)
(0.146688 0.0651407 0)
(0.162033 0.029891 0)
(0.165926 -0.0046754 0)
(0.157918 -0.0406354 0)
(0.137713 -0.080256 0)
(0.105419 -0.125928 0)
(0.062237 -0.179734 0)
(0.0117754 -0.242022 0)
(-0.0378627 -0.307859 0)
(-0.0717419 -0.360055 0)
(-0.0702253 -0.356462 0)
(-0.028032 -0.208509 0)
(-0.0300423 0.239604 0)
(-0.0612637 0.335433 0)
(-0.0219603 0.300336 0)
(0.0505471 0.240106 0)
(0.127546 0.182955 0)
(0.19698 0.135397 0)
(0.254313 0.0974064 0)
(0.298229 0.0668568 0)
(0.328804 0.0413585 0)
(0.346446 0.018779 0)
(0.351354 -0.00279665 0)
(0.343279 -0.02527 0)
(0.321442 -0.0507944 0)
(0.284612 -0.0820549 0)
(0.231536 -0.12245 0)
(0.16214 -0.175663 0)
(0.0798863 -0.243388 0)
(-0.00323299 -0.318946 0)
(-0.0551851 -0.368269 0)
(-0.028919 -0.268118 0)
(0.00699024 0.282596 0)
(0.0187259 0.294806 0)
(0.139189 0.210807 0)
(0.264541 0.143401 0)
(0.364342 0.0971331 0)
(0.440329 0.0657342 0)
(0.496715 0.044205 0)
(0.536849 0.0288636 0)
(0.563423 0.0171846 0)
(0.578283 0.00747736 0)
(0.582357 -0.00149499 0)
(0.575671 -0.0108396 0)
(0.557281 -0.0218333 0)
(0.525103 -0.0363101 0)
(0.47574 -0.0572199 0)
(0.404508 -0.0893252 0)
(0.305257 -0.139647 0)
(0.17356 -0.216209 0)
(0.0400265 -0.311517 0)
(0.0172301 -0.300775 0)
(0.298507 0.146497 0)
(0.395135 0.127583 0)
(0.55744 0.0760431 0)
(0.674536 0.0436657 0)
(0.743874 0.025518 0)
(0.787142 0.0151963 0)
(0.815481 0.00917729 0)
(0.833952 0.00548487 0)
(0.845382 0.00301162 0)
(0.851368 0.00114154 0)
(0.852662 -0.000499648 0)
(0.849378 -0.00220826 0)
(0.840995 -0.00432336 0)
(0.826136 -0.00739828 0)
(0.802069 -0.0124937 0)
(0.763612 -0.0217206 0)
(0.69917 -0.0392185 0)
(0.584034 -0.0726055 0)
(0.414717 -0.127955 0)
(0.307688 -0.149859 0)
)
;

boundaryField
{
    movingWall
    {
        type            fixedValue;
        value           uniform (1 0 0);
    }
    fixedWalls
    {
        type            noSlip;
    }
    frontAndBack
    {
        type            empty;
    }
}


// ************************************************************************* //
