/*--------------------------------*- C++ -*----------------------------------*\
| =========                 |                                                 |
| \\      /  F ield         | OpenFOAM: The Open Source CFD Toolbox           |
|  \\    /   O peration     | Version:  2512                                  |
|   \\  /    A nd           | Website:  www.openfoam.com                      |
|    \\/     M anipulation  |                                                 |
\*---------------------------------------------------------------------------*/
FoamFile
{
    version     2.0;
    format      ascii;
    arch        "LSB;label=32;scalar=64";
    class       volScalarField;
    location    "0.7";
    object      p;
}
// * * * * * * * * * * * * * * * * * * * * * * * * * * * * * * * * * * * * * //

dimensions      [0 2 -2 0 0 0 0];

internalField   nonuniform List<scalar> 
400
(
3.97982e-06
-0.00583412
-0.0129747
-0.0184259
-0.0204442
-0.018251
-0.0117858
-0.00149403
0.0118293
0.0271438
0.0432419
0.0588233
0.0725812
0.0833127
0.0900579
0.0922718
0.0900302
0.0842498
0.0768809
0.0710596
0.00578805
-0.000221141
-0.00579962
-0.00953437
-0.0105896
-0.0084233
-0.00296174
0.00547996
0.0163055
0.0287105
0.0417446
0.054377
0.0655741
0.0743951
0.0801041
0.0822996
0.0810626
0.0770445
0.0712709
0.0653069
0.0133447
0.00502441
-0.000996893
-0.00442318
-0.00527351
-0.00326478
0.00160116
0.00902585
0.0184996
0.0293461
0.0407614
0.0518649
0.0617632
0.0696305
0.0748009
0.0768717
0.075835
0.072081
0.0658082
0.0575203
0.0201497
0.00868197
0.00122314
-0.0026695
-0.00372404
-0.00188756
0.00272884
0.00978185
0.0187773
0.0290916
0.0399882
0.0506499
0.0602285
0.0679113
0.0729983
0.0749964
0.0737599
0.0694522
0.0616105
0.0500868
0.0245156
0.00975548
0.000587613
-0.00398654
-0.00530299
-0.00350849
0.00117331
0.00833268
0.0174595
0.027946
0.0390812
0.0500654
0.0600437
0.0681594
0.0736204
0.0757914
0.0743617
0.0692854
0.0595372
0.044518
0.0251958
0.00712876
-0.00380369
-0.00905564
-0.010512
-0.00850034
-0.00335753
0.00442815
0.0143114
0.0256763
0.0378102
0.0498988
0.0610427
0.070297
0.076728
0.0795097
0.0781304
0.0723287
0.0605553
0.0418665
0.0211162
-0.000287225
-0.0129354
-0.0187063
-0.0200286
-0.0174133
-0.0113182
-0.00232023
0.00898911
0.021974
0.0359065
0.0499401
0.0631068
0.0743388
0.0825146
0.0865613
0.0857106
0.0794414
0.0656411
0.0430427
0.0111714
-0.0136465
-0.0278747
-0.0338492
-0.0346007
-0.0308555
-0.0232115
-0.0123447
0.00110442
0.0164825
0.03305
0.0499298
0.0660781
0.0802832
0.0911928
0.0974205
0.0978578
0.0916288
0.0759219
0.0490805
-0.00593104
-0.0342981
-0.0498676
-0.0555409
-0.0550854
-0.0495109
-0.0395906
-0.0261115
-0.00975638
0.00882256
0.0288993
0.0495903
0.0697926
0.0881477
0.103039
0.11269
0.115535
0.110182
0.0928649
0.0613657
-0.0318108
-0.0639107
-0.0804113
-0.084996
-0.0824129
-0.0740728
-0.0609764
-0.0440333
-0.0239494
-0.00133608
0.023145
0.0486587
0.0740913
0.0979655
0.118387
0.133113
0.139969
0.136804
0.118476
0.0818739
-0.0686065
-0.10464
-0.121334
-0.123574
-0.117505
-0.105119
-0.087712
-0.0663207
-0.0416335
-0.0141533
0.0156064
0.0469523
0.0788525
0.109787
0.137614
0.15957
0.172702
0.173758
0.15556
0.11349
-0.11932
-0.159396
-0.174898
-0.172736
-0.161135
-0.142919
-0.119751
-0.0927708
-0.0625725
-0.0294438
0.00637569
0.0444744
0.0840536
0.123698
0.161127
0.193069
0.215637
0.224048
0.208092
0.16052
-0.188515
-0.23228
-0.243913
-0.233921
-0.213679
-0.187143
-0.156364
-0.122494
-0.0858919
-0.0464669
-0.00400999
0.0415421
0.0898432
0.139827
0.189311
0.234671
0.271037
0.291624
0.281781
0.229616
-0.283819
-0.329334
-0.331795
-0.308248
-0.274692
-0.236429
-0.195756
-0.153603
-0.109834
-0.0637389
-0.0144315
0.0388695
0.0965591
0.158278
0.222371
0.285273
0.341356
0.38152
0.384935
0.331609
-0.419117
-0.459672
-0.442297
-0.39576
-0.342117
-0.287732
-0.23461
-0.182925
-0.131604
-0.0789782
-0.0232058
0.0374849
0.104563
0.178847
0.259866
0.344964
0.428578
0.499627
0.529652
0.485093
-0.620311
-0.636706
-0.578611
-0.49417
-0.411236
-0.335656
-0.267778
-0.205974
-0.147532
-0.0893761
-0.0284164
0.0383612
0.113822
0.200489
0.299991
0.412034
0.533013
0.651709
0.732702
0.722042
-0.935788
-0.87846
-0.741734
-0.59797
-0.474394
-0.372654
-0.288864
-0.217758
-0.153947
-0.0924555
-0.0287069
0.0417097
0.123281
0.220739
0.338947
0.482179
0.652054
0.841404
1.01522
1.09719
-1.47722
-1.20583
-0.920587
-0.691604
-0.517375
-0.387571
-0.290083
-0.213351
-0.148128
-0.0872116
-0.0245654
0.0454795
0.128971
0.233117
0.367157
0.54277
0.77155
1.05949
1.40242
1.73089
-2.54621
-1.62525
-1.04413
-0.71162
-0.496093
-0.352299
-0.254687
-0.183692
-0.126233
-0.073621
-0.0192546
0.0428366
0.119307
0.21893
0.355013
0.5483
0.826987
1.23619
1.90602
2.93141
-4.37956
-2.04003
-0.972833
-0.563393
-0.357741
-0.239979
-0.170004
-0.12371
-0.0874351
-0.0534862
-0.0166547
0.0276436
0.0845675
0.161656
0.272291
0.441998
0.718321
1.22491
2.40647
4.86184
)
;

boundaryField
{
    movingWall
    {
        type            zeroGradient;
    }
    fixedWalls
    {
        type            zeroGradient;
    }
    frontAndBack
    {
        type            empty;
    }
}


// ************************************************************************* //
