/*--------------------------------*- C++ -*----------------------------------*\
| =========                 |                                                 |
| \\      /  F ield         | OpenFOAM: The Open Source CFD Toolbox           |
|  \\    /   O peration     | Version:  2512                                  |
|   \\  /    A nd           | Website:  www.openfoam.com                      |
|    \\/     M anipulation  |                                                 |
\*---------------------------------------------------------------------------*/
FoamFile
{
    version     2.0;
    format      ascii;
    arch        "LSB;label=32;scalar=64";
    class       volVectorField;
    location    "0.7";
    object      U;
}
// * * * * * * * * * * * * * * * * * * * * * * * * * * * * * * * * * * * * * //

dimensions      [0 1 -1 0 0 0 0];

internalField   nonuniform List<vector> 
400
(
(0.000254324 -0.000250949 0)
(0.00014245 0.00011045 0)
(-0.00117673 0.000562674 0)
(-0.00348119 0.000882549 0)
(-0.00637751 0.00104301 0)
(-0.00946956 0.00105901 0)
(-0.0124031 0.000955348 0)
(-0.0148852 0.000758422 0)
(-0.0166899 0.000493305 0)
(-0.0176587 0.000184024 0)
(-0.0177025 -0.000144953 0)
(-0.0168054 -0.000467228 0)
(-0.0150303 -0.000753559 0)
(-0.0125252 -0.000971877 0)
(-0.00952641 -0.00108852 0)
(-0.00635496 -0.00107134 0)
(-0.00340068 -0.00089571 0)
(-0.00108603 -0.000554515 0)
(0.000197607 -8.96035e-05 0)
(0.000268605 0.000262785 0)
(-7.60148e-05 -0.000170106 0)
(-0.00161021 0.00164403 0)
(-0.00569344 0.00361532 0)
(-0.0117196 0.00503229 0)
(-0.0188928 0.00574046 0)
(-0.0264012 0.00575742 0)
(-0.0334694 0.00516913 0)
(-0.039427 0.00409046 0)
(-0.043744 0.00264625 0)
(-0.0460471 0.000966344 0)
(-0.0461293 -0.000812953 0)
(-0.0439612 -0.00254597 0)
(-0.039701 -0.0040768 0)
(-0.0337026 -0.0052427 0)
(-0.0265135 -0.00588384 0)
(-0.0188549 -0.00586208 0)
(-0.0115673 -0.00509218 0)
(-0.00551377 -0.00358745 0)
(-0.00149192 -0.00155855 0)
(-4.13324e-05 0.000228151 0)
(-0.000526245 0.00109138 0)
(-0.00370902 0.00573701 0)
(-0.0105893 0.0102247 0)
(-0.0199925 0.0134078 0)
(-0.0307656 0.0149464 0)
(-0.0418231 0.0148389 0)
(-0.0521208 0.0132558 0)
(-0.0607452 0.0104562 0)
(-0.0669705 0.00674195 0)
(-0.0702837 0.00243874 0)
(-0.0704015 -0.00210674 0)
(-0.067285 -0.0065257 0)
(-0.0611529 -0.0104294 0)
(-0.0524888 -0.0134212 0)
(-0.0420373 -0.0151235 0)
(-0.0307742 -0.0152256 0)
(-0.0198295 -0.0135558 0)
(-0.0103638 -0.010179 0)
(-0.0035462 -0.00555172 0)
(-0.00047458 -0.000948491 0)
(-0.000925057 0.00347972 0)
(-0.00568832 0.0122218 0)
(-0.0153022 0.0199223 0)
(-0.0279176 0.0251982 0)
(-0.0419862 0.0275973 0)
(-0.0561801 0.0271377 0)
(-0.0692533 0.0241091 0)
(-0.0801271 0.0189539 0)
(-0.0879497 0.0121954 0)
(-0.0921202 0.00440479 0)
(-0.0923046 -0.00380837 0)
(-0.0884511 -0.011797 0)
(-0.0808056 -0.0188825 0)
(-0.0699232 -0.0243765 0)
(-0.0566693 -0.0276277 0)
(-0.0421947 -0.0281016 0)
(-0.0278567 -0.0254975 0)
(-0.0150937 -0.0198919 0)
(-0.0055018 -0.0119286 0)
(-0.000858472 -0.00322465 0)
(-0.00127486 0.00687754 0)
(-0.00753198 0.0209548 0)
(-0.0198052 0.032511 0)
(-0.0355355 0.0401034 0)
(-0.0527439 0.0432904 0)
(-0.0698593 0.0421928 0)
(-0.0854644 0.0372775 0)
(-0.0983617 0.0292129 0)
(-0.107621 0.0187769 0)
(-0.112589 0.00681319 0)
(-0.112898 -0.00578102 0)
(-0.108475 -0.0180553 0)
(-0.0995622 -0.0290118 0)
(-0.0867388 -0.0376329 0)
(-0.070935 -0.0429448 0)
(-0.0534295 -0.0441283 0)
(-0.0357843 -0.0406781 0)
(-0.019735 -0.0325924 0)
(-0.00736629 -0.0205913 0)
(-0.00119954 -0.00649768 0)
(-0.00160241 0.0112152 0)
(-0.00931283 0.0318755 0)
(-0.0242094 0.0479522 0)
(-0.0430026 0.0580719 0)
(-0.0632565 0.0619369 0)
(-0.0831525 0.0598809 0)
(-0.101124 0.0526279 0)
(-0.115892 0.0411253 0)
(-0.126488 0.0264364 0)
(-0.132237 0.00969204 0)
(-0.132748 -0.00791724 0)
(-0.127921 -0.0251329 0)
(-0.117964 -0.0406254 0)
(-0.103431 -0.0530192 0)
(-0.0852663 -0.0609655 0)
(-0.0648332 -0.0632788 0)
(-0.0438841 -0.0591405 0)
(-0.0244769 -0.0483435 0)
(-0.00924858 -0.0315578 0)
(-0.0015324 -0.0107277 0)
(-0.00193377 0.0164764 0)
(-0.0111146 0.0449746 0)
(-0.0286498 0.0662329 0)
(-0.0504786 0.0790584 0)
(-0.0736827 0.0834452 0)
(-0.0962011 0.0800731 0)
(-0.116349 0.0700233 0)
(-0.132811 0.0545838 0)
(-0.144628 0.0351305 0)
(-0.151138 0.0130834 0)
(-0.151945 -0.0100877 0)
(-0.146911 -0.0328336 0)
(-0.136176 -0.0535001 0)
(-0.120218 -0.0703364 0)
(-0.0999274 -0.0815638 0)
(-0.0766968 -0.0855303 0)
(-0.0524371 -0.0809608 0)
(-0.0295432 -0.0672748 0)
(-0.011276 -0.0449388 0)
(-0.00189326 -0.0159502 0)
(-0.00229241 0.0226937 0)
(-0.0130167 0.0603003 0)
(-0.0332493 0.0873618 0)
(-0.058077 0.102994 0)
(-0.0840703 0.107663 0)
(-0.108948 0.102559 0)
(-0.130962 0.0892423 0)
(-0.148828 0.069409 0)
(-0.16166 0.0447699 0)
(-0.168861 0.0170181 0)
(-0.170056 -0.0121352 0)
(-0.165063 -0.0408944 0)
(-0.153921 -0.0673147 0)
(-0.136961 -0.0892722 0)
(-0.114934 -0.104509 0)
(-0.0891685 -0.110793 0)
(-0.0616656 -0.106208 0)
(-0.0351453 -0.0895752 0)
(-0.013576 -0.0609473 0)
(-0.00231772 -0.0222754 0)
(-0.00270242 0.0299449 0)
(-0.0150976 0.0779545 0)
(-0.0381121 0.111352 0)
(-0.0658439 0.129745 0)
(-0.0943202 0.134313 0)
(-0.121091 0.12697 0)
(-0.144436 0.109899 0)
(-0.163205 0.0852792 0)
(-0.176678 0.0551647 0)
(-0.184397 0.0214846 0)
(-0.186048 -0.0138768 0)
(-0.181411 -0.0489581 0)
(-0.170384 -0.0815937 0)
(-0.153069 -0.109322 0)
(-0.129959 -0.129377 0)
(-0.102175 -0.138822 0)
(-0.0716819 -0.13488 0)
(-0.0414622 -0.115462 0)
(-0.0162752 -0.079891 0)
(-0.00284381 -0.029886 0)
(-0.00319648 0.0383561 0)
(-0.0174534 0.0980852 0)
(-0.0433372 0.138183 0)
(-0.0737505 0.159039 0)
(-0.104152 0.162895 0)
(-0.132023 0.152668 0)
(-0.155816 0.131338 0)
(-0.174669 0.101637 0)
(-0.188158 0.0659547 0)
(-0.196057 0.0263867 0)
(-0.198175 -0.0151154 0)
(-0.194272 -0.0565474 0)
(-0.184069 -0.0956427 0)
(-0.167353 -0.129687 0)
(-0.144202 -0.155419 0)
(-0.115325 -0.16909 0)
(-0.0824357 -0.166792 0)
(-0.0486294 -0.145114 0)
(-0.0195121 -0.102152 0)
(-0.00351977 -0.0390416 0)
(-0.00383033 0.0481234 0)
(-0.0202302 0.120887 0)
(-0.0490413 0.167743 0)
(-0.0816786 0.190358 0)
(-0.113043 0.19255 0)
(-0.140736 0.17861 0)
(-0.163611 0.152508 0)
(-0.181299 0.117589 0)
(-0.193836 0.0765318 0)
(-0.20135 0.031491 0)
(-0.203846 -0.0156622 0)
(-0.201098 -0.0630533 0)
(-0.192635 -0.108493 0)
(-0.177842 -0.14917 0)
(-0.156208 -0.181411 0)
(-0.127764 -0.200598 0)
(-0.0936314 -0.201411 0)
(-0.0567239 -0.178559 0)
(-0.0234583 -0.128161 0)
(-0.00441805 -0.0500958 0)
(-0.00470876 0.0595634 0)
(-0.023675 0.146607 0)
(-0.055376 0.199744 0)
(-0.0893668 0.22278 0)
(-0.12011 0.221884 0)
(-0.145664 0.203183 0)
(-0.16562 0.171837 0)
(-0.180361 0.131808 0)
(-0.190572 0.0859669 0)
(-0.196854 0.0363728 0)
(-0.199492 -0.0153747 0)
(-0.198325 -0.0677471 0)
(-0.192705 -0.11887 0)
(-0.18156 -0.166079 0)
(-0.163629 -0.205485 0)
(-0.137949 -0.231652 0)
(-0.104581 -0.23761 0)
(-0.0657219 -0.215506 0)
(-0.0283505 -0.15835 0)
(-0.00566015 -0.0635397 0)
(-0.00603187 0.0732178 0)
(-0.0282025 0.175549 0)
(-0.0625004 0.233555 0)
(-0.0962459 0.254735 0)
(-0.123844 0.248724 0)
(-0.144387 0.224022 0)
(-0.158661 0.187105 0)
(-0.168099 0.14246 0)
(-0.174194 0.0929664 0)
(-0.178112 0.0403755 0)
(-0.180478 -0.0142033 0)
(-0.181258 -0.0698266 0)
(-0.179686 -0.125216 0)
(-0.174259 -0.178183 0)
(-0.16288 -0.224971 0)
(-0.143299 -0.259579 0)
(-0.113921 -0.273312 0)
(-0.0753801 -0.255042 0)
(-0.0345239 -0.193066 0)
(-0.00745992 -0.0800871 0)
(-0.00817101 0.0900339 0)
(-0.0344584 0.207999 0)
(-0.0704042 0.267864 0)
(-0.101012 0.283594 0)
(-0.121563 0.269805 0)
(-0.133098 0.237838 0)
(-0.138156 0.195404 0)
(-0.139457 0.147233 0)
(-0.139364 0.0959077 0)
(-0.139592 0.0426162 0)
(-0.141107 -0.0122382 0)
(-0.144052 -0.0685139 0)
(-0.147664 -0.125801 0)
(-0.150163 -0.182775 0)
(-0.14871 -0.236326 0)
(-0.13963 -0.280441 0)
(-0.119081 -0.305008 0)
(-0.0849249 -0.295129 0)
(-0.0424076 -0.232344 0)
(-0.0101879 -0.100816 0)
(-0.0117523 0.111627 0)
(-0.0432448 0.243933 0)
(-0.078294 0.300009 0)
(-0.100619 0.30508 0)
(-0.108343 0.280457 0)
(-0.105726 0.240383 0)
(-0.0975266 0.193283 0)
(-0.0877699 0.14355 0)
(-0.0795015 0.0930355 0)
(-0.0747869 0.0420922 0)
(-0.0748051 -0.0097341 0)
(-0.079893 -0.0632187 0)
(-0.0894645 -0.118999 0)
(-0.101789 -0.176965 0)
(-0.113684 -0.23529 0)
(-0.1203 -0.288879 0)
(-0.115257 -0.327181 0)
(-0.0922655 -0.331761 0)
(-0.0522974 -0.275361 0)
(-0.0144103 -0.127331 0)
(-0.0175607 0.140673 0)
(-0.0547869 0.282101 0)
(-0.082798 0.324685 0)
(-0.0880793 0.312463 0)
(-0.0751084 0.274456 0)
(-0.0525937 0.226774 0)
(-0.0274628 0.177292 0)
(-0.00452006 0.129138 0)
(0.0130922 0.0829136 0)
(0.0234324 0.037945 0)
(0.02539 -0.00707831 0)
(0.0184981 -0.0537661 0)
(0.00296989 -0.103761 0)
(-0.0200072 -0.15833 0)
(-0.0476962 -0.217509 0)
(-0.0749948 -0.278361 0)
(-0.0935583 -0.331778 0)
(-0.0920885 -0.357641 0)
(-0.0633136 -0.319235 0)
(-0.020647 -0.161985 0)
(-0.0255491 0.181821 0)
(-0.0659038 0.317645 0)
(-0.0733694 0.331291 0)
(-0.0480871 0.295392 0)
(-0.00559195 0.244218 0)
(0.0412045 0.192388 0)
(0.08464 0.145055 0)
(0.120524 0.102978 0)
(0.146689 0.0651408 0)
(0.162034 0.029891 0)
(0.165927 -0.00467544 0)
(0.157919 -0.0406356 0)
(0.137714 -0.0802562 0)
(0.105419 -0.125928 0)
(0.0622375 -0.179734 0)
(0.0117758 -0.242022 0)
(-0.0378625 -0.307859 0)
(-0.0717418 -0.360056 0)
(-0.0702252 -0.356462 0)
(-0.028032 -0.208509 0)
(-0.0300423 0.239604 0)
(-0.0612637 0.335433 0)
(-0.0219602 0.300336 0)
(0.0505472 0.240106 0)
(0.127546 0.182956 0)
(0.196981 0.135397 0)
(0.254314 0.0974066 0)
(0.29823 0.0668569 0)
(0.328805 0.0413585 0)
(0.346447 0.018779 0)
(0.351355 -0.00279668 0)
(0.34328 -0.02527 0)
(0.321443 -0.0507945 0)
(0.284613 -0.082055 0)
(0.231536 -0.12245 0)
(0.16214 -0.175663 0)
(0.0798865 -0.243388 0)
(-0.00323288 -0.318946 0)
(-0.0551851 -0.368269 0)
(-0.028919 -0.268118 0)
(0.00699024 0.282596 0)
(0.0187259 0.294806 0)
(0.139189 0.210807 0)
(0.264541 0.143401 0)
(0.364343 0.0971332 0)
(0.44033 0.0657342 0)
(0.496715 0.0442051 0)
(0.536849 0.0288636 0)
(0.563424 0.0171846 0)
(0.578284 0.00747737 0)
(0.582358 -0.001495 0)
(0.575671 -0.0108396 0)
(0.557281 -0.0218334 0)
(0.525104 -0.0363102 0)
(0.47574 -0.0572199 0)
(0.404508 -0.0893252 0)
(0.305257 -0.139647 0)
(0.17356 -0.216209 0)
(0.0400265 -0.311517 0)
(0.0172301 -0.300775 0)
(0.298507 0.146497 0)
(0.395135 0.127583 0)
(0.55744 0.0760431 0)
(0.674536 0.0436657 0)
(0.743874 0.025518 0)
(0.787142 0.0151963 0)
(0.815481 0.00917731 0)
(0.833952 0.00548489 0)
(0.845382 0.00301162 0)
(0.851368 0.00114154 0)
(0.852662 -0.000499653 0)
(0.849378 -0.00220827 0)
(0.840995 -0.00432337 0)
(0.826136 -0.00739829 0)
(0.802069 -0.0124937 0)
(0.763612 -0.0217206 0)
(0.69917 -0.0392185 0)
(0.584034 -0.0726055 0)
(0.414717 -0.127955 0)
(0.307688 -0.149859 0)
)
;

boundaryField
{
    movingWall
    {
        type            fixedValue;
        value           uniform (1 0 0);
    }
    fixedWalls
    {
        type            noSlip;
    }
    frontAndBack
    {
        type            empty;
    }
}


// ************************************************************************* //
