/*--------------------------------*- C++ -*----------------------------------*\
| =========                 |                                                 |
| \\      /  F ield         | OpenFOAM: The Open Source CFD Toolbox           |
|  \\    /   O peration     | Version:  2512                                  |
|   \\  /    A nd           | Website:  www.openfoam.com                      |
|    \\/     M anipulation  |                                                 |
\*---------------------------------------------------------------------------*/
FoamFile
{
    version     2.0;
    format      ascii;
    arch        "LSB;label=32;scalar=64";
    class       volScalarField;
    location    "0.2";
    object      p;
}
// * * * * * * * * * * * * * * * * * * * * * * * * * * * * * * * * * * * * * //

dimensions      [0 2 -2 0 0 0 0];

internalField   nonuniform List<scalar> 
400
(
3.9364e-06
-0.00583155
-0.0129685
-0.0184163
-0.0204325
-0.0182385
-0.011774
-0.00148428
0.011836
0.0271468
0.0432409
0.0588186
0.0725736
0.0833033
0.090048
0.092263
0.0900237
0.0842467
0.0768812
0.0710621
0.00578533
-0.000221159
-0.0057967
-0.00952894
-0.0105824
-0.00841536
-0.00295401
0.00548661
0.0163103
0.0287131
0.0417447
0.0543746
0.0655698
0.0743897
0.0800987
0.0822952
0.0810601
0.0770444
0.0712735
0.0653117
0.0133383
0.00502156
-0.00099672
-0.00442071
-0.00526942
-0.00325978
0.00160636
0.00903062
0.0185035
0.0293486
0.0407624
0.0518644
0.0617614
0.0696281
0.0747986
0.0768704
0.0758354
0.0720837
0.0658136
0.0575287
0.0201399
0.00867675
0.0012213
-0.00266897
-0.00372181
-0.00188425
0.00273267
0.00978572
0.0187808
0.0290944
0.0399901
0.0506509
0.0602287
0.0679111
0.0729984
0.0749974
0.0737626
0.0694572
0.0616186
0.0500987
0.024504
0.00974887
0.000584586
-0.00398712
-0.00530175
-0.00350597
0.00117662
0.0083364
0.0174633
0.0279495
0.0390843
0.0500681
0.0600459
0.0681613
0.0736225
0.0757944
0.0743663
0.0692923
0.0595475
0.0445327
0.0251841
0.00712213
-0.00380683
-0.00905639
-0.0105109
-0.00849775
-0.00335389
0.00443249
0.0143161
0.0256811
0.0378149
0.0499032
0.0610468
0.0703008
0.076732
0.0795145
0.0781366
0.0723371
0.060567
0.0418828
0.0211064
-0.000292405
-0.0129375
-0.0187062
-0.0200267
-0.0174099
-0.0113135
-0.00231457
0.00899538
0.0219805
0.035913
0.0499465
0.0631128
0.0743446
0.0825204
0.0865676
0.085718
0.0794507
0.0656534
0.0430594
0.0111653
-0.0136489
-0.0278746
-0.0338474
-0.0345973
-0.0308505
-0.0232051
-0.0123372
0.00111274
0.0164912
0.0330588
0.0499383
0.0660863
0.0802909
0.0912002
0.0974282
0.0978662
0.0916386
0.0759341
0.0490963
-0.00593203
-0.0342966
-0.0498646
-0.0555367
-0.0550798
-0.049504
-0.0395823
-0.0261018
-0.00974578
0.00883369
0.0289105
0.0496012
0.0698029
0.0881573
0.103048
0.112699
0.115544
0.110192
0.0928763
0.0613795
-0.0318058
-0.0639049
-0.0804049
-0.0849889
-0.0824049
-0.0740636
-0.0609659
-0.0440215
-0.0239366
-0.00132264
0.0231586
0.0486719
0.0741037
0.0979769
0.118397
0.133122
0.139978
0.136813
0.118486
0.0818851
-0.0685952
-0.10463
-0.121324
-0.123565
-0.117495
-0.105108
-0.0876996
-0.066307
-0.0416188
-0.014138
0.0156219
0.0469673
0.0788666
0.1098
0.137625
0.159581
0.172711
0.173766
0.155568
0.113498
-0.119303
-0.159381
-0.174885
-0.172724
-0.161123
-0.142907
-0.119738
-0.092756
-0.0625566
-0.0294272
0.00639246
0.0444907
0.0840688
0.123712
0.161139
0.193079
0.215645
0.224055
0.208098
0.160524
-0.188494
-0.232262
-0.243899
-0.233907
-0.213666
-0.18713
-0.15635
-0.122479
-0.0858756
-0.0464499
-0.00399279
0.0415587
0.0898587
0.139841
0.189323
0.234681
0.271045
0.29163
0.281784
0.229617
-0.283796
-0.329316
-0.33178
-0.308235
-0.27468
-0.236417
-0.195743
-0.153589
-0.109818
-0.0637223
-0.0144147
0.0388857
0.096574
0.158292
0.222382
0.285282
0.341363
0.381525
0.384937
0.331607
-0.419095
-0.459655
-0.442283
-0.395749
-0.342107
-0.287722
-0.234599
-0.182912
-0.13159
-0.0789629
-0.0231902
0.0375
0.104577
0.178859
0.259876
0.344971
0.428583
0.49963
0.529651
0.485088
-0.620291
-0.636691
-0.578601
-0.494162
-0.411229
-0.335649
-0.26777
-0.205965
-0.14752
-0.0893628
-0.0284024
0.0383747
0.113835
0.200499
0.299999
0.412039
0.533016
0.65171
0.7327
0.722036
-0.935773
-0.878449
-0.741728
-0.597966
-0.474392
-0.372651
-0.28886
-0.217751
-0.153938
-0.0924445
-0.0286948
0.0417218
0.123292
0.220748
0.338953
0.482183
0.652056
0.841404
1.01522
1.09718
-1.47721
-1.20582
-0.920585
-0.691605
-0.517377
-0.387573
-0.290083
-0.213348
-0.148122
-0.0872028
-0.0245549
0.0454906
0.128982
0.233126
0.367163
0.542774
0.771552
1.05949
1.40242
1.73089
-2.5462
-1.62525
-1.04413
-0.711625
-0.496099
-0.352304
-0.254691
-0.183692
-0.12623
-0.0736141
-0.0192451
0.0428478
0.119318
0.21894
0.355021
0.548307
0.82699
1.23619
1.90602
2.93141
-4.37956
-2.04003
-0.972838
-0.563402
-0.357752
-0.23999
-0.170013
-0.123714
-0.0874346
-0.0534809
-0.0166452
0.0276561
0.0845816
0.16167
0.272304
0.442009
0.718328
1.22491
2.40647
4.86184
)
;

boundaryField
{
    movingWall
    {
        type            zeroGradient;
    }
    fixedWalls
    {
        type            zeroGradient;
    }
    frontAndBack
    {
        type            empty;
    }
}


// ************************************************************************* //
