/*--------------------------------*- C++ -*----------------------------------*\
| =========                 |                                                 |
| \\      /  F ield         | OpenFOAM: The Open Source CFD Toolbox           |
|  \\    /   O peration     | Version:  2512                                  |
|   \\  /    A nd           | Website:  www.openfoam.com                      |
|    \\/     M anipulation  |                                                 |
\*---------------------------------------------------------------------------*/
FoamFile
{
    version     2.0;
    format      ascii;
    arch        "LSB;label=32;scalar=64";
    class       surfaceScalarField;
    location    "0.2";
    object      phi;
}
// * * * * * * * * * * * * * * * * * * * * * * * * * * * * * * * * * * * * * //

dimensions      [0 3 -1 0 0 0 0];

oriented        oriented;

internalField   nonuniform List<scalar> 
760
(
1.42333e-08
-1.42636e-08
-2.22296e-08
3.64627e-08
-1.14234e-07
9.20042e-08
-2.45397e-07
1.31162e-07
-3.95939e-07
1.50542e-07
-5.47148e-07
1.51207e-07
-6.82919e-07
1.3577e-07
-7.90349e-07
1.07429e-07
-8.59866e-07
6.9517e-08
-8.85291e-07
2.54251e-08
-8.6398e-07
-2.13108e-08
-7.97078e-07
-6.6902e-08
-6.89819e-07
-1.07258e-07
-5.51763e-07
-1.38056e-07
-3.96795e-07
-1.54967e-07
-2.42663e-07
-1.54132e-07
-1.09708e-07
-1.32954e-07
-1.84435e-08
-9.12645e-08
1.56977e-08
-3.41413e-08
1.56975e-08
-3.42284e-08
1.9965e-08
-1.80316e-07
1.8255e-07
-4.33839e-07
3.45528e-07
-7.64141e-07
4.61464e-07
-1.13175e-06
5.18155e-07
-1.49662e-06
5.16074e-07
-1.82257e-06
4.61716e-07
-2.07965e-06
3.64512e-07
-2.24531e-06
2.35183e-07
-2.30506e-06
8.51658e-08
-2.25294e-06
-7.34226e-08
-2.09217e-06
-2.27676e-07
-1.8355e-06
-3.63926e-07
-1.50544e-06
-4.68123e-07
-1.13365e-06
-5.26758e-07
-7.59255e-07
-5.28526e-07
-4.25273e-07
-4.66937e-07
-1.72647e-07
-3.4389e-07
-3.08319e-08
-1.75957e-07
-1.51345e-08
-9.21655e-08
1.12131e-07
-3.56845e-07
4.47229e-07
-7.64252e-07
7.52935e-07
-1.26798e-06
9.65187e-07
-1.81396e-06
1.06414e-06
-2.34808e-06
1.0502e-06
-2.82127e-06
9.34905e-07
-3.19262e-06
7.35865e-07
-3.43119e-06
4.73753e-07
-3.51707e-06
1.71039e-07
-3.44216e-06
-1.48323e-07
-3.21095e-06
-4.58887e-07
-2.84097e-06
-7.33915e-07
-2.36287e-06
-9.4622e-07
-1.81961e-06
-1.07002e-06
-1.26401e-06
-1.08412e-06
-7.54246e-07
-9.76703e-07
-3.46838e-07
-7.51298e-07
-8.72806e-08
-4.35515e-07
-1.02415e-07
-1.45137e-07
2.57268e-07
-5.25242e-07
8.27332e-07
-1.0812e-06
1.30889e-06
-1.74682e-06
1.63081e-06
-2.45336e-06
1.77068e-06
-3.13514e-06
1.73197e-06
-3.73382e-06
1.53359e-06
-4.20125e-06
1.2033e-06
-4.50116e-06
7.73653e-07
-4.61013e-06
2.80013e-07
-4.51851e-06
-2.39947e-07
-4.23111e-06
-7.46288e-07
-3.76793e-06
-1.19709e-06
-3.16444e-06
-1.54971e-06
-2.47095e-06
-1.76351e-06
-1.75042e-06
-1.80466e-06
-1.07411e-06
-1.65301e-06
-5.14941e-07
-1.31047e-06
-1.39249e-07
-8.11207e-07
-2.41665e-07
-1.93528e-07
4.50797e-07
-6.84738e-07
1.31854e-06
-1.38511e-06
2.00926e-06
-2.20643e-06
2.45213e-06
-3.06435e-06
2.6286e-06
-3.88236e-06
2.54999e-06
-4.59484e-06
2.24606e-06
-5.14872e-06
1.75719e-06
-5.50447e-06
1.1294e-06
-5.6365e-06
4.12051e-07
-5.53378e-06
-3.42669e-07
-5.20053e-06
-1.07954e-06
-4.65724e-06
-1.74038e-06
-3.94157e-06
-2.26537e-06
-3.10862e-06
-2.59646e-06
-2.22972e-06
-2.68355e-06
-1.38915e-06
-2.49358e-06
-6.78258e-07
-2.02136e-06
-1.87693e-07
-1.30177e-06
-4.29359e-07
-2.39853e-07
6.90651e-07
-8.40067e-07
1.91875e-06
-1.68274e-06
2.85193e-06
-2.6562e-06
3.42559e-06
-3.65966e-06
3.63206e-06
-4.6063e-06
3.49663e-06
-5.42463e-06
3.06439e-06
-6.05866e-06
2.39121e-06
-6.46732e-06
1.53806e-06
-6.62398e-06
5.68707e-07
-6.51629e-06
-4.5036e-07
-6.14689e-06
-1.44894e-06
-5.53482e-06
-2.35245e-06
-4.71746e-06
-3.08274e-06
-3.75229e-06
-3.56163e-06
-2.71763e-06
-3.71821e-06
-1.711e-06
-3.5002e-06
-8.44393e-07
-2.88797e-06
-2.36096e-07
-1.91007e-06
-6.65456e-07
-2.86657e-07
9.77308e-07
-9.96806e-07
2.6289e-06
-1.98154e-06
3.83666e-06
-3.10411e-06
4.54816e-06
-4.24682e-06
4.77477e-06
-5.31342e-06
4.56322e-06
-6.22848e-06
3.97946e-06
-6.93537e-06
3.0981e-06
-7.39357e-06
1.99627e-06
-7.57666e-06
7.51801e-07
-7.47123e-06
-5.55792e-07
-7.07728e-06
-1.84289e-06
-6.41022e-06
-3.01952e-06
-5.50414e-06
-3.98881e-06
-4.41589e-06
-4.64988e-06
-3.22851e-06
-4.9056e-06
-2.0524e-06
-4.67632e-06
-1.02225e-06
-3.91811e-06
-2.8819e-07
-2.64413e-06
-9.53646e-07
-3.36246e-07
1.31355e-06
-1.16011e-06
3.45277e-06
-2.28752e-06
4.96407e-06
-3.55424e-06
5.81488e-06
-4.82562e-06
6.04615e-06
-5.99784e-06
5.73544e-06
-6.99461e-06
4.97624e-06
-7.76196e-06
3.86544e-06
-8.26282e-06
2.49714e-06
-8.47291e-06
9.61887e-07
-8.37827e-06
-6.50432e-07
-7.97527e-06
-2.24589e-06
-7.27307e-06
-3.72171e-06
-6.29862e-06
-4.96326e-06
-5.10356e-06
-5.84493e-06
-3.77168e-06
-6.23748e-06
-2.42432e-06
-6.02368e-06
-1.22045e-06
-5.12199e-06
-3.47607e-07
-3.51697e-06
-1.30125e-06
-3.90876e-07
1.70443e-06
-1.33466e-06
4.39655e-06
-2.60455e-06
6.23397e-06
-4.00532e-06
7.21565e-06
-5.386e-06
7.42683e-06
-6.63878e-06
6.98821e-06
-7.69133e-06
6.02879e-06
-8.49726e-06
4.67137e-06
-9.02714e-06
3.02701e-06
-9.2616e-06
1.19635e-06
-9.18732e-06
-7.24717e-07
-8.79617e-06
-2.63704e-06
-8.08811e-06
-4.42977e-06
-7.07786e-06
-5.97351e-06
-5.80532e-06
-7.11748e-06
-4.34824e-06
-7.69456e-06
-2.83425e-06
-7.53767e-06
-1.44678e-06
-6.50946e-06
-4.17984e-07
-4.54576e-06
-1.71924e-06
-4.53374e-07
2.15781e-06
-1.52548e-06
5.46865e-06
-2.93454e-06
7.64303e-06
-4.44965e-06
8.73075e-06
-5.90576e-06
8.88295e-06
-7.19718e-06
8.27963e-06
-8.26297e-06
7.09458e-06
-9.07133e-06
5.47974e-06
-9.6061e-06
3.56178e-06
-9.85679e-06
1.44704e-06
-9.81258e-06
-7.68926e-07
-9.4605e-06
-2.98911e-06
-8.7882e-06
-5.10207e-06
-7.7921e-06
-6.96961e-06
-6.49135e-06
-8.41823e-06
-4.94722e-06
-9.23869e-06
-3.28454e-06
-9.20034e-06
-1.70833e-06
-8.08567e-06
-5.03451e-07
-5.75065e-06
-2.22269e-06
-5.28252e-07
2.68606e-06
-1.73947e-06
6.67988e-06
-3.2777e-06
9.18125e-06
-4.87131e-06
1.03244e-05
-6.34669e-06
1.03583e-05
-7.61053e-06
9.54347e-06
-8.6241e-06
8.10815e-06
-9.37945e-06
6.23509e-06
-9.88075e-06
4.06309e-06
-1.01313e-05
1.69755e-06
-1.01255e-05
-7.74736e-07
-9.84592e-06
-3.26865e-06
-9.26547e-06
-5.68252e-06
-8.35571e-06
-7.87937e-06
-7.104e-06
-9.66994e-06
-5.54001e-06
-1.08027e-05
-3.77011e-06
-1.09702e-05
-2.01177e-06
-9.84401e-06
-6.09521e-07
-7.1529e-06
-2.83221e-06
-6.23578e-07
3.30963e-06
-1.9872e-06
8.0435e-06
-3.63168e-06
1.08257e-05
-5.24175e-06
1.19344e-05
-6.64751e-06
1.17641e-05
-7.78455e-06
1.06805e-05
-8.65122e-06
8.97482e-06
-9.27461e-06
6.85847e-06
-9.68688e-06
4.47536e-06
-9.91015e-06
1.92082e-06
-9.94749e-06
-7.37394e-07
-9.77871e-06
-3.43743e-06
-9.36083e-06
-6.1004e-06
-8.63535e-06
-8.60485e-06
-7.54592e-06
-1.07594e-05
-6.07098e-06
-1.22776e-05
-4.27366e-06
-1.27676e-05
-2.3632e-06
-1.17545e-05
-7.44583e-07
-8.77151e-06
-3.57679e-06
-7.54017e-07
4.06365e-06
-2.28417e-06
9.57366e-06
-3.98682e-06
1.25284e-05
-5.50906e-06
1.34567e-05
-6.7098e-06
1.29648e-05
-7.57901e-06
1.15497e-05
-8.17073e-06
9.56654e-06
-8.55847e-06
7.24622e-06
-8.80867e-06
4.72556e-06
-8.966e-06
2.07815e-06
-9.04524e-06
-6.58155e-07
-9.02646e-06
-3.45622e-06
-8.85306e-06
-6.27379e-06
-8.43499e-06
-9.02292e-06
-7.66275e-06
-1.15316e-05
-6.44157e-06
-1.34988e-05
-4.75568e-06
-1.44534e-05
-2.76628e-06
-1.37439e-05
-9.22266e-07
-1.06155e-05
-4.49906e-06
-9.45313e-07
5.00896e-06
-2.64839e-06
1.12767e-05
-4.31086e-06
1.41909e-05
-5.5734e-06
1.47192e-05
-6.37113e-06
1.37626e-05
-6.78407e-06
1.19627e-05
-6.94158e-06
9.72405e-06
-6.97103e-06
7.27567e-06
-6.97421e-06
4.72874e-06
-7.01797e-06
2.12191e-06
-7.13e-06
-5.46119e-07
-7.29499e-06
-3.29123e-06
-7.4496e-06
-6.11918e-06
-7.47851e-06
-8.99402e-06
-7.21816e-06
-1.17919e-05
-6.48259e-06
-1.42344e-05
-5.13302e-06
-1.5803e-05
-3.21466e-06
-1.56622e-05
-1.16444e-06
-1.26657e-05
-5.6635e-06
-1.23802e-06
6.24698e-06
-3.08353e-06
1.31222e-05
-4.50774e-06
1.56151e-05
-5.2348e-06
1.54463e-05
-5.35595e-06
1.38837e-05
-5.08296e-06
1.16897e-05
-4.63236e-06
9.27345e-06
-4.18097e-06
6.82429e-06
-3.85623e-06
4.404e-06
-3.73896e-06
2.00464e-06
-3.86703e-06
-4.1805e-07
-4.2344e-06
-2.92386e-06
-4.7836e-06
-5.56998e-06
-5.39226e-06
-8.38536e-06
-5.85929e-06
-1.13249e-05
-5.90695e-06
-1.41867e-05
-5.23289e-06
-1.64771e-05
-3.66654e-06
-1.72286e-05
-1.50092e-06
-1.48314e-05
-7.16442e-06
-1.67619e-06
7.92317e-06
-3.51469e-06
1.49607e-05
-4.31584e-06
1.64162e-05
-4.0896e-06
1.522e-05
-3.19417e-06
1.29883e-05
-2.00023e-06
1.04957e-05
-7.96947e-07
8.07017e-06
2.17284e-07
5.81005e-06
9.16018e-07
3.70527e-06
1.22331e-06
1.69734e-06
1.09977e-06
-2.94508e-07
5.38851e-07
-2.36294e-06
-4.24972e-07
-4.60615e-06
-1.69438e-06
-7.11596e-06
-3.07395e-06
-9.94534e-06
-4.23209e-06
-1.30286e-05
-4.69682e-06
-1.60124e-05
-3.96913e-06
-1.79563e-05
-1.94784e-06
-1.68527e-05
-9.11226e-06
-2.23821e-06
1.01614e-05
-3.59421e-06
1.63167e-05
-3.07921e-06
1.59012e-05
-1.3452e-06
1.3486e-05
8.95446e-07
1.07476e-05
3.15314e-06
8.23803e-06
5.13606e-06
6.08724e-06
6.68645e-06
4.25967e-06
7.72345e-06
2.66826e-06
8.20409e-06
1.21671e-06
8.10139e-06
-1.91807e-07
7.39656e-06
-1.65811e-06
6.08445e-06
-3.29404e-06
4.19686e-06
-5.22837e-06
1.85189e-06
-7.60037e-06
-6.64017e-07
-1.05127e-05
-2.79498e-06
-1.38814e-05
-3.66768e-06
-1.70836e-05
-2.42058e-06
-1.80998e-05
-1.15328e-05
-2.59901e-06
1.27604e-05
-2.18891e-06
1.59067e-05
7.16752e-07
1.29956e-05
4.46798e-06
9.73479e-06
8.13137e-06
7.08426e-06
1.12995e-05
5.06993e-06
1.38269e-05
3.55984e-06
1.56858e-05
2.40075e-06
1.68893e-05
1.46476e-06
1.74524e-05
6.53557e-07
1.73739e-05
-1.13242e-07
1.6628e-05
-9.12208e-07
1.51646e-05
-1.8307e-06
1.2921e-05
-2.9847e-06
9.85922e-06
-4.53863e-06
6.05947e-06
-6.71292e-06
1.90946e-06
-9.73139e-06
-1.5673e-06
-1.36068e-05
-2.48621e-06
-1.71808e-05
-1.4019e-05
-7.4123e-07
1.35016e-05
4.08917e-06
1.10763e-05
1.02978e-05
6.78694e-06
1.57924e-05
4.24013e-06
2.01563e-05
2.72042e-06
2.34561e-05
1.77012e-06
2.58588e-05
1.15714e-06
2.75195e-05
7.4001e-07
2.8552e-05
4.32253e-07
2.90244e-05
1.81218e-07
2.89602e-05
-4.9024e-08
2.83366e-05
-2.88671e-07
2.70796e-05
-5.73697e-07
2.50528e-05
-9.57909e-07
2.20497e-05
-1.53552e-06
1.78142e-05
-2.47741e-06
1.21726e-05
-4.08981e-06
5.48692e-06
-6.92109e-06
-8.11928e-08
-1.16127e-05
-1.41002e-05
1.35016e-05
2.45779e-05
3.13648e-05
3.56049e-05
3.83254e-05
4.00955e-05
4.12526e-05
4.19926e-05
4.24249e-05
4.26061e-05
4.25571e-05
4.22684e-05
4.16947e-05
4.07368e-05
3.92013e-05
3.67239e-05
3.26341e-05
2.5713e-05
1.41002e-05
)
;

boundaryField
{
    movingWall
    {
        type            calculated;
        value           uniform 0;
    }
    fixedWalls
    {
        type            calculated;
        value           uniform 0;
    }
    frontAndBack
    {
        type            empty;
    }
}


// ************************************************************************* //
