/*--------------------------------*- C++ -*----------------------------------*\
| =========                 |                                                 |
| \\      /  F ield         | OpenFOAM: The Open Source CFD Toolbox           |
|  \\    /   O peration     | Version:  2512                                  |
|   \\  /    A nd           | Website:  www.openfoam.com                      |
|    \\/     M anipulation  |                                                 |
\*---------------------------------------------------------------------------*/
FoamFile
{
    version     2.0;
    format      ascii;
    arch        "LSB;label=32;scalar=64";
    class       volVectorField;
    location    "0.2";
    object      U;
}
// * * * * * * * * * * * * * * * * * * * * * * * * * * * * * * * * * * * * * //

dimensions      [0 1 -1 0 0 0 0];

internalField   nonuniform List<vector> 
400
(
(0.000254198 -0.000250816 0)
(0.000142328 0.000110435 0)
(-0.00117633 0.000562455 0)
(-0.00347983 0.000882183 0)
(-0.00637493 0.00104257 0)
(-0.00946566 0.00105856 0)
(-0.012398 0.000954944 0)
(-0.014879 0.000758105 0)
(-0.0166829 0.000493106 0)
(-0.0176514 0.000183961 0)
(-0.0176953 -0.000144872 0)
(-0.0167986 -0.000467008 0)
(-0.0150244 -0.00075322 0)
(-0.0125204 -0.000971456 0)
(-0.00952286 -0.00108807 0)
(-0.00635271 -0.00107092 0)
(-0.00339958 -0.000895384 0)
(-0.00108578 -0.000554344 0)
(0.000197442 -8.96199e-05 0)
(0.000268478 0.000262653 0)
(-7.59946e-05 -0.000169973 0)
(-0.00160956 0.0016434 0)
(-0.00569108 0.00361382 0)
(-0.0117147 0.00503014 0)
(-0.0188848 0.00573799 0)
(-0.0263899 0.00575495 0)
(-0.0334552 0.00516692 0)
(-0.0394102 0.00408874 0)
(-0.0437255 0.00264519 0)
(-0.0460277 0.000966039 0)
(-0.0461101 -0.000812473 0)
(-0.0439431 -0.00254475 0)
(-0.039685 -0.00407495 0)
(-0.0336892 -0.00524041 0)
(-0.0265032 -0.00588137 0)
(-0.0188478 -0.00585971 0)
(-0.0115631 -0.00509023 0)
(-0.00551186 -0.00358618 0)
(-0.00149146 -0.0015581 0)
(-4.13442e-05 0.00022797 0)
(-0.00052601 0.00109097 0)
(-0.00370744 0.00573464 0)
(-0.0105848 0.0102204 0)
(-0.019984 0.013402 0)
(-0.0307527 0.01494 0)
(-0.0418055 0.0148326 0)
(-0.052099 0.0132502 0)
(-0.0607199 0.0104519 0)
(-0.0669427 0.00673929 0)
(-0.0702548 0.00243802 0)
(-0.0703728 -0.00210546 0)
(-0.067258 -0.00652254 0)
(-0.0611286 -0.0104247 0)
(-0.0524684 -0.0134154 0)
(-0.0420212 -0.0151172 0)
(-0.0307626 -0.0152194 0)
(-0.0198222 -0.0135506 0)
(-0.01036 -0.0101752 0)
(-0.00354494 -0.00554983 0)
(-0.000474412 -0.000948274 0)
(-0.000924646 0.00347826 0)
(-0.00568598 0.0122167 0)
(-0.015296 0.019914 0)
(-0.0279064 0.0251876 0)
(-0.0419696 0.0275856 0)
(-0.0561579 0.0271263 0)
(-0.0692261 0.0240991 0)
(-0.0800957 0.0189462 0)
(-0.0879155 0.0121908 0)
(-0.0920847 0.00440359 0)
(-0.0922694 -0.00380602 0)
(-0.0884178 -0.0117913 0)
(-0.0807756 -0.0188741 0)
(-0.0698977 -0.0243661 0)
(-0.056649 -0.0276163 0)
(-0.0421799 -0.0280905 0)
(-0.027847 -0.0254878 0)
(-0.0150885 -0.0198846 0)
(-0.00549989 -0.0119244 0)
(-0.000858159 -0.00322361 0)
(-0.00127433 0.00687469 0)
(-0.00752916 0.0209463 0)
(-0.019798 0.0324979 0)
(-0.0355228 0.0400872 0)
(-0.0527252 0.0432729 0)
(-0.0698346 0.0421758 0)
(-0.0854343 0.0372626 0)
(-0.0983273 0.0292015 0)
(-0.107584 0.01877 0)
(-0.112551 0.00681148 0)
(-0.11286 -0.00577748 0)
(-0.108438 -0.0180469 0)
(-0.0995293 -0.0289993 0)
(-0.0867107 -0.0376174 0)
(-0.0709124 -0.0429278 0)
(-0.0534128 -0.0441115 0)
(-0.0357732 -0.0406632 0)
(-0.0197289 -0.0325809 0)
(-0.00736398 -0.0205843 0)
(-0.00119914 -0.00649553 0)
(-0.00160185 0.0112108 0)
(-0.00930989 0.0318634 0)
(-0.024202 0.047934 0)
(-0.0429897 0.0580498 0)
(-0.0632376 0.0619133 0)
(-0.0831277 0.0598581 0)
(-0.101094 0.0526081 0)
(-0.115857 0.0411103 0)
(-0.12645 0.0264274 0)
(-0.132198 0.00968983 0)
(-0.13271 -0.00791249 0)
(-0.127885 -0.0251217 0)
(-0.117931 -0.0406087 0)
(-0.103403 -0.0529986 0)
(-0.0852436 -0.0609428 0)
(-0.0648162 -0.0632561 0)
(-0.0438727 -0.0591202 0)
(-0.0244706 -0.0483274 0)
(-0.00924615 -0.0315476 0)
(-0.00153196 -0.0107243 0)
(-0.00193325 0.0164705 0)
(-0.0111119 0.0449589 0)
(-0.0286431 0.0662098 0)
(-0.0504668 0.0790307 0)
(-0.0736656 0.0834159 0)
(-0.0961787 0.080045 0)
(-0.116322 0.069999 0)
(-0.132781 0.0545653 0)
(-0.144594 0.0351195 0)
(-0.151103 0.0130807 0)
(-0.151911 -0.0100819 0)
(-0.146878 -0.0328198 0)
(-0.136147 -0.0534795 0)
(-0.120192 -0.0703109 0)
(-0.0999066 -0.0815356 0)
(-0.0766811 -0.0855021 0)
(-0.0524266 -0.0809353 0)
(-0.0295373 -0.0672543 0)
(-0.0112738 -0.0449256 0)
(-0.00189285 -0.0159456 0)
(-0.002292 0.0226865 0)
(-0.0130146 0.0602815 0)
(-0.033244 0.0873345 0)
(-0.0580676 0.102962 0)
(-0.0840567 0.107629 0)
(-0.108931 0.102527 0)
(-0.130941 0.089214 0)
(-0.148804 0.0693877 0)
(-0.161633 0.0447571 0)
(-0.168833 0.017015 0)
(-0.170028 -0.0121284 0)
(-0.165037 -0.0408785 0)
(-0.153898 -0.0672909 0)
(-0.136941 -0.0892427 0)
(-0.114918 -0.104477 0)
(-0.0891557 -0.11076 0)
(-0.0616569 -0.106178 0)
(-0.0351404 -0.0895509 0)
(-0.0135741 -0.0609313 0)
(-0.00231737 -0.0222696 0)
(-0.00270217 0.0299367 0)
(-0.0150963 0.0779335 0)
(-0.0381088 0.111322 0)
(-0.065838 0.129709 0)
(-0.0943116 0.134275 0)
(-0.12108 0.126934 0)
(-0.144422 0.109868 0)
(-0.163189 0.0852557 0)
(-0.176661 0.0551507 0)
(-0.184379 0.0214811 0)
(-0.18603 -0.0138695 0)
(-0.181394 -0.0489407 0)
(-0.170368 -0.0815677 0)
(-0.153056 -0.10929 0)
(-0.129948 -0.129341 0)
(-0.102167 -0.138786 0)
(-0.0716759 -0.134846 0)
(-0.0414588 -0.115435 0)
(-0.0162738 -0.0798729 0)
(-0.00284355 -0.0298793 0)
(-0.00319643 0.0383475 0)
(-0.017453 0.0980631 0)
(-0.0433362 0.138151 0)
(-0.0737488 0.159001 0)
(-0.104149 0.162856 0)
(-0.132019 0.15263 0)
(-0.155811 0.131305 0)
(-0.174663 0.101612 0)
(-0.188152 0.0659399 0)
(-0.196051 0.0263829 0)
(-0.198168 -0.0151079 0)
(-0.194265 -0.0565293 0)
(-0.184062 -0.0956156 0)
(-0.167347 -0.129654 0)
(-0.144197 -0.155381 0)
(-0.115322 -0.169051 0)
(-0.0824328 -0.166757 0)
(-0.0486277 -0.145085 0)
(-0.0195113 -0.102133 0)
(-0.00351963 -0.0390344 0)
(-0.00383049 0.0481148 0)
(-0.0202309 0.120865 0)
(-0.0490429 0.167711 0)
(-0.0816812 0.19032 0)
(-0.113047 0.192511 0)
(-0.14074 0.178572 0)
(-0.163616 0.152475 0)
(-0.181304 0.117564 0)
(-0.193842 0.0765167 0)
(-0.201356 0.031487 0)
(-0.203851 -0.0156549 0)
(-0.201102 -0.0630355 0)
(-0.192639 -0.108466 0)
(-0.177845 -0.149136 0)
(-0.15621 -0.181373 0)
(-0.127765 -0.200559 0)
(-0.093632 -0.201376 0)
(-0.0567241 -0.17853 0)
(-0.0234584 -0.128141 0)
(-0.00441803 -0.0500884 0)
(-0.0047091 0.0595556 0)
(-0.0236767 0.146587 0)
(-0.0553801 0.199714 0)
(-0.0893736 0.222745 0)
(-0.12012 0.221846 0)
(-0.145677 0.203146 0)
(-0.165634 0.171805 0)
(-0.180377 0.131783 0)
(-0.190589 0.0859521 0)
(-0.196871 0.0363687 0)
(-0.199509 -0.0153681 0)
(-0.198341 -0.0677303 0)
(-0.192719 -0.118844 0)
(-0.181572 -0.166047 0)
(-0.163638 -0.205449 0)
(-0.137956 -0.231615 0)
(-0.104585 -0.237575 0)
(-0.0657241 -0.215477 0)
(-0.0283512 -0.158331 0)
(-0.00566026 -0.0635324 0)
(-0.00603237 0.073211 0)
(-0.028205 0.175531 0)
(-0.0625065 0.233529 0)
(-0.0962562 0.254703 0)
(-0.123859 0.24869 0)
(-0.144405 0.223989 0)
(-0.158683 0.187076 0)
(-0.168124 0.142438 0)
(-0.174221 0.0929526 0)
(-0.178139 0.0403713 0)
(-0.180505 -0.0141976 0)
(-0.181283 -0.0698117 0)
(-0.179708 -0.125193 0)
(-0.174278 -0.178154 0)
(-0.162895 -0.224939 0)
(-0.14331 -0.259546 0)
(-0.113929 -0.273281 0)
(-0.0753839 -0.255016 0)
(-0.0345253 -0.193048 0)
(-0.00746014 -0.0800805 0)
(-0.0081716 0.0900287 0)
(-0.0344614 0.207985 0)
(-0.0704115 0.267842 0)
(-0.101024 0.283567 0)
(-0.12158 0.269775 0)
(-0.133121 0.23781 0)
(-0.138183 0.195378 0)
(-0.139488 0.147213 0)
(-0.139397 0.0958953 0)
(-0.139627 0.0426122 0)
(-0.141141 -0.0122337 0)
(-0.144084 -0.0685013 0)
(-0.147693 -0.125782 0)
(-0.150187 -0.18275 0)
(-0.14873 -0.236298 0)
(-0.139645 -0.280412 0)
(-0.119091 -0.304981 0)
(-0.0849302 -0.295107 0)
(-0.0424095 -0.232328 0)
(-0.0101883 -0.100811 0)
(-0.0117529 0.111623 0)
(-0.0432479 0.243922 0)
(-0.0783017 0.299992 0)
(-0.100632 0.305059 0)
(-0.108362 0.280433 0)
(-0.105751 0.240359 0)
(-0.0975568 0.193262 0)
(-0.0878044 0.143534 0)
(-0.0795388 0.093025 0)
(-0.0748256 0.0420886 0)
(-0.0748435 -0.00973071 0)
(-0.0799295 -0.0632087 0)
(-0.0894976 -0.118983 0)
(-0.101817 -0.176945 0)
(-0.113707 -0.235267 0)
(-0.120317 -0.288856 0)
(-0.115269 -0.327159 0)
(-0.0922717 -0.331743 0)
(-0.0522998 -0.275349 0)
(-0.0144107 -0.127326 0)
(-0.0175612 0.140671 0)
(-0.0547897 0.282094 0)
(-0.0828051 0.324673 0)
(-0.0880919 0.312448 0)
(-0.0751269 0.274438 0)
(-0.0526181 0.226756 0)
(-0.0274927 0.177276 0)
(-0.00455446 0.129126 0)
(0.0130547 0.0829055 0)
(0.0233932 0.0379421 0)
(0.025351 -0.00707596 0)
(0.0184608 -0.0537588 0)
(0.00293589 -0.10375 0)
(-0.0200366 -0.158315 0)
(-0.0477201 -0.217492 0)
(-0.0750127 -0.278344 0)
(-0.0935702 -0.331762 0)
(-0.0920951 -0.357628 0)
(-0.0633161 -0.319226 0)
(-0.0206475 -0.161982 0)
(-0.0255495 0.18182 0)
(-0.0659059 0.317641 0)
(-0.0733751 0.331284 0)
(-0.0480975 0.295382 0)
(-0.00560774 0.244206 0)
(0.0411832 0.192376 0)
(0.0846133 0.145044 0)
(0.120492 0.102969 0)
(0.146655 0.0651352 0)
(0.161998 0.0298889 0)
(0.165891 -0.00467392 0)
(0.157885 -0.0406307 0)
(0.137682 -0.0802485 0)
(0.105392 -0.125919 0)
(0.0622153 -0.179723 0)
(0.0117591 -0.242011 0)
(-0.0378737 -0.307848 0)
(-0.071748 -0.360047 0)
(-0.0702276 -0.356456 0)
(-0.0280324 -0.208507 0)
(-0.0300424 0.239604 0)
(-0.0612648 0.335431 0)
(-0.0219638 0.300333 0)
(0.05054 0.240101 0)
(0.127534 0.182949 0)
(0.196964 0.135391 0)
(0.254293 0.0974003 0)
(0.298205 0.0668519 0)
(0.328777 0.0413553 0)
(0.346418 0.0187778 0)
(0.351326 -0.00279578 0)
(0.343251 -0.0252673 0)
(0.321417 -0.0507901 0)
(0.284591 -0.0820496 0)
(0.231518 -0.122444 0)
(0.162127 -0.175657 0)
(0.0798774 -0.243382 0)
(-0.00323786 -0.318941 0)
(-0.0551869 -0.368266 0)
(-0.0289193 -0.268117 0)
(0.00699036 0.282597 0)
(0.0187257 0.294806 0)
(0.139188 0.210806 0)
(0.264537 0.143399 0)
(0.364336 0.0971306 0)
(0.440319 0.0657315 0)
(0.496702 0.0442026 0)
(0.536833 0.0288616 0)
(0.563405 0.0171834 0)
(0.578264 0.00747698 0)
(0.582338 -0.00149457 0)
(0.575652 -0.0108385 0)
(0.557264 -0.0218316 0)
(0.525089 -0.036308 0)
(0.475728 -0.0572176 0)
(0.4045 -0.0893229 0)
(0.305252 -0.139645 0)
(0.173557 -0.216207 0)
(0.0400255 -0.311516 0)
(0.0172299 -0.300775 0)
(0.298507 0.146497 0)
(0.395135 0.127583 0)
(0.55744 0.076043 0)
(0.674536 0.0436654 0)
(0.743872 0.0255176 0)
(0.787138 0.0151958 0)
(0.815476 0.00917684 0)
(0.833946 0.00548453 0)
(0.845375 0.00301142 0)
(0.85136 0.00114151 0)
(0.852655 -0.000499533 0)
(0.849371 -0.00220802 0)
(0.840989 -0.00432302 0)
(0.826131 -0.00739789 0)
(0.802065 -0.0124933 0)
(0.763609 -0.0217202 0)
(0.699169 -0.0392182 0)
(0.584033 -0.0726052 0)
(0.414717 -0.127955 0)
(0.307688 -0.149859 0)
)
;

boundaryField
{
    movingWall
    {
        type            fixedValue;
        value           uniform (1 0 0);
    }
    fixedWalls
    {
        type            noSlip;
    }
    frontAndBack
    {
        type            empty;
    }
}


// ************************************************************************* //
