/*--------------------------------*- C++ -*----------------------------------*\
| =========                 |                                                 |
| \\      /  F ield         | OpenFOAM: The Open Source CFD Toolbox           |
|  \\    /   O peration     | Version:  2512                                  |
|   \\  /    A nd           | Website:  www.openfoam.com                      |
|    \\/     M anipulation  |                                                 |
\*---------------------------------------------------------------------------*/
FoamFile
{
    version     2.0;
    format      ascii;
    arch        "LSB;label=32;scalar=64";
    class       volScalarField;
    location    "0.1";
    object      p;
}
// * * * * * * * * * * * * * * * * * * * * * * * * * * * * * * * * * * * * * //

dimensions      [0 2 -2 0 0 0 0];

internalField   nonuniform List<scalar> 
400
(
1.62914e-07
-0.00575446
-0.0127776
-0.0181196
-0.020062
-0.0178365
-0.0113851
-0.00114948
0.0120835
0.0272851
0.0432619
0.0587293
0.072396
0.0830721
0.0898065
0.0920571
0.0898941
0.0842191
0.0769559
0.0712047
0.00570856
-0.000214395
-0.0057005
-0.00935378
-0.0103489
-0.0081511
-0.00268864
0.00572532
0.0164992
0.0288363
0.0417957
0.0543574
0.065499
0.0742888
0.0799973
0.0822247
0.0810478
0.0771077
0.0714165
0.0655224
0.0131638
0.0049546
-0.000975695
-0.0043301
-0.00512566
-0.00308275
0.00179558
0.00921208
0.0186599
0.0294677
0.040838
0.0518982
0.0617631
0.0696145
0.0747915
0.0768938
0.0759108
0.0722265
0.0660365
0.0578416
0.0198758
0.00854757
0.00118799
-0.00263323
-0.00363247
-0.0017572
0.00288106
0.00993991
0.018927
0.0292218
0.0400922
0.0507272
0.0602856
0.0679611
0.0730593
0.0750898
0.0739063
0.0696687
0.0619194
0.0505159
0.0241836
0.0095818
0.000519245
-0.00398291
-0.00524245
-0.00340442
0.00130765
0.00848457
0.017617
0.0280985
0.0392214
0.0501904
0.0601567
0.0682699
0.0737436
0.0759464
0.0745684
0.0695627
0.0599143
0.0450347
0.0248572
0.00695251
-0.00387527
-0.00905679
-0.0104556
-0.00839655
-0.00321646
0.00459628
0.014496
0.0258668
0.0379979
0.0500784
0.0612145
0.0704673
0.0769092
0.079719
0.0783873
0.0726533
0.0609806
0.042438
0.0208295
-0.000424535
-0.0129771
-0.0186827
-0.0199488
-0.0172841
-0.0111466
-0.00211422
0.00921967
0.0222182
0.0361539
0.0501831
0.0633426
0.0745705
0.0827517
0.086819
0.0860076
0.0797983
0.0660913
0.0436323
0.0109924
-0.0137051
-0.0278551
-0.0337735
-0.0344733
-0.0306788
-0.0229891
-0.0120827
0.00139686
0.0167938
0.0333681
0.0502444
0.0663832
0.0805786
0.0914848
0.0977222
0.0981862
0.0920034
0.0763738
0.0496517
-0.00595638
-0.0342454
-0.0497616
-0.0553919
-0.054892
-0.0492709
-0.0393039
-0.0257818
-0.00939202
0.0092095
0.0292948
0.0499815
0.0701699
0.0885076
0.103384
0.113031
0.115886
0.110561
0.0932973
0.0618861
-0.0316535
-0.0637271
-0.0802043
-0.0847625
-0.0821451
-0.0737633
-0.0606209
-0.043633
-0.0235115
-0.000872918
0.0236177
0.0491251
0.0745385
0.0983864
0.118781
0.133487
0.140334
0.137174
0.118871
0.0823171
-0.0682596
-0.104323
-0.121026
-0.123258
-0.117167
-0.104746
-0.0872953
-0.065858
-0.0411306
-0.0136229
0.0161469
0.0474842
0.0793598
0.110259
0.138047
0.159968
0.173071
0.174109
0.155903
0.113837
-0.118802
-0.15896
-0.174503
-0.172353
-0.160744
-0.142502
-0.119293
-0.0922661
-0.0620245
-0.0288653
0.00696534
0.0450536
0.0846031
0.124204
0.161583
0.193476
0.215999
0.224369
0.208374
0.160759
-0.187869
-0.23176
-0.243465
-0.233504
-0.213269
-0.186716
-0.155898
-0.121978
-0.085328
-0.045868
-0.00339763
0.0421429
0.0904099
0.140343
0.189769
0.235069
0.271376
0.291906
0.281995
0.229744
-0.283109
-0.328782
-0.331338
-0.307843
-0.274308
-0.236034
-0.195322
-0.153114
-0.109289
-0.0631517
-0.0138268
0.039463
0.097115
0.158778
0.222804
0.285639
0.341657
0.381753
0.385079
0.331632
-0.418423
-0.459149
-0.441885
-0.395417
-0.341806
-0.287415
-0.234249
-0.182499
-0.131112
-0.078434
-0.0226372
0.0380449
0.105084
0.179307
0.260254
0.345279
0.428825
0.499803
0.52973
0.485025
-0.61971
-0.636271
-0.578297
-0.493937
-0.411043
-0.335454
-0.267525
-0.205643
-0.147121
-0.088899
-0.0279044
0.038871
0.114295
0.200898
0.300324
0.412289
0.533198
0.651827
0.732723
0.721911
-0.935345
-0.878161
-0.741557
-0.59788
-0.474344
-0.372589
-0.288736
-0.217537
-0.15363
-0.0920575
-0.0282594
0.0421672
0.12371
0.221107
0.339236
0.482387
0.652188
0.841473
1.0152
1.09703
-1.47696
-1.20568
-0.920557
-0.691661
-0.517469
-0.387641
-0.290079
-0.213242
-0.147907
-0.0868909
-0.0241751
0.0458995
0.129379
0.233476
0.367441
0.54297
0.77167
1.05955
1.4024
1.73075
-2.5461
-1.62523
-1.04423
-0.711812
-0.496326
-0.352508
-0.254816
-0.183701
-0.126108
-0.0733677
-0.0188993
0.0432548
0.119743
0.219341
0.355363
0.548568
0.827165
1.23629
1.90603
2.93134
-4.37954
-2.04009
-0.973034
-0.563722
-0.358137
-0.240363
-0.170301
-0.123864
-0.087416
-0.0532911
-0.0163053
0.0281068
0.0850933
0.162191
0.272786
0.442415
0.718636
1.22511
2.40657
4.86185
)
;

boundaryField
{
    movingWall
    {
        type            zeroGradient;
    }
    fixedWalls
    {
        type            zeroGradient;
    }
    frontAndBack
    {
        type            empty;
    }
}


// ************************************************************************* //
