/*--------------------------------*- C++ -*----------------------------------*\
| =========                 |                                                 |
| \\      /  F ield         | OpenFOAM: The Open Source CFD Toolbox           |
|  \\    /   O peration     | Version:  2512                                  |
|   \\  /    A nd           | Website:  www.openfoam.com                      |
|    \\/     M anipulation  |                                                 |
\*---------------------------------------------------------------------------*/
FoamFile
{
    version     2.0;
    format      ascii;
    arch        "LSB;label=32;scalar=64";
    class       surfaceScalarField;
    location    "0.1";
    object      phi;
}
// * * * * * * * * * * * * * * * * * * * * * * * * * * * * * * * * * * * * * //

dimensions      [0 3 -1 0 0 0 0];

oriented        oriented;

internalField   nonuniform List<scalar> 
760
(
1.40096e-08
-1.40106e-08
-2.20806e-08
3.60914e-08
-1.12976e-07
9.08949e-08
-2.42485e-07
1.2951e-07
-3.91084e-07
1.48599e-07
-5.40312e-07
1.49228e-07
-6.74296e-07
1.33984e-07
-7.80322e-07
1.06026e-07
-8.48965e-07
6.86421e-08
-8.74134e-07
2.51694e-08
-8.53216e-07
-2.09172e-08
-7.87321e-07
-6.58948e-08
-6.81582e-07
-1.05739e-07
-5.45393e-07
-1.36189e-07
-3.92427e-07
-1.52966e-07
-2.40185e-07
-1.52242e-07
-1.08759e-07
-1.31427e-07
-1.8444e-08
-9.03148e-08
1.54391e-08
-3.3883e-08
1.54388e-08
-3.3822e-08
1.98097e-08
-1.78091e-07
1.80361e-07
-4.28378e-07
3.41181e-07
-7.54379e-07
4.5551e-07
-1.11713e-06
5.11355e-07
-1.47714e-06
5.09233e-07
-1.79874e-06
4.55582e-07
-2.05243e-06
3.59721e-07
-2.21601e-06
2.3222e-07
-2.27517e-06
8.4331e-08
-2.22405e-06
-7.20379e-08
-2.06574e-06
-2.24203e-07
-1.81277e-06
-3.58713e-07
-1.48724e-06
-4.61718e-07
-1.12035e-06
-5.19861e-07
-7.50665e-07
-5.21922e-07
-4.20685e-07
-4.61407e-07
-1.70916e-07
-3.40082e-07
-3.05808e-08
-1.74217e-07
-1.51425e-08
-9.09912e-08
1.10802e-07
-3.52333e-07
4.41703e-07
-7.54583e-07
7.4343e-07
-1.25186e-06
9.5279e-07
-1.79079e-06
1.05028e-06
-2.31797e-06
1.03641e-06
-2.78502e-06
9.22627e-07
-3.15162e-06
7.26327e-07
-3.38729e-06
4.67892e-07
-3.47239e-06
1.69431e-07
-3.39892e-06
-1.45513e-07
-3.1712e-06
-4.51927e-07
-2.80642e-06
-7.23493e-07
-2.33473e-06
-9.33399e-07
-1.79845e-06
-1.05614e-06
-1.24969e-06
-1.07069e-06
-7.45929e-07
-9.65169e-07
-3.43115e-07
-7.42896e-07
-8.63687e-08
-4.30963e-07
-1.01511e-07
-1.43339e-07
2.5414e-07
-5.18882e-07
8.17248e-07
-1.0682e-06
1.29275e-06
-1.72583e-06
1.61042e-06
-2.42382e-06
1.74828e-06
-3.09731e-06
1.70989e-06
-3.68872e-06
1.51404e-06
-4.15059e-06
1.18819e-06
-4.44711e-06
7.64416e-07
-4.55521e-06
2.77528e-07
-4.46528e-06
-2.3544e-07
-4.182e-06
-7.35216e-07
-3.72496e-06
-1.18053e-06
-3.12906e-06
-1.52929e-06
-2.44391e-06
-1.7413e-06
-1.73166e-06
-1.78293e-06
-1.06282e-06
-1.63402e-06
-5.09594e-07
-1.29612e-06
-1.378e-07
-8.02757e-07
-2.39311e-07
-1.91346e-07
4.45487e-07
-6.77252e-07
1.30315e-06
-1.37013e-06
1.98563e-06
-2.18263e-06
2.42292e-06
-3.03127e-06
2.59691e-06
-3.84038e-06
2.51901e-06
-4.54511e-06
2.21877e-06
-5.09309e-06
1.73617e-06
-5.44527e-06
1.1166e-06
-5.57639e-06
4.08647e-07
-5.47546e-06
-3.36364e-07
-5.14655e-06
-1.06412e-06
-4.60977e-06
-1.71731e-06
-3.9022e-06
-2.23687e-06
-3.0782e-06
-2.5653e-06
-2.20832e-06
-2.65281e-06
-1.37602e-06
-2.46631e-06
-6.71887e-07
-2.00025e-06
-1.85908e-07
-1.28874e-06
-4.25218e-07
-2.37559e-07
6.83046e-07
-8.32296e-07
1.89789e-06
-1.66735e-06
2.82069e-06
-2.63197e-06
3.38754e-06
-3.62622e-06
3.59116e-06
-4.56408e-06
3.45687e-06
-5.37482e-06
3.02951e-06
-6.00306e-06
2.36441e-06
-6.40824e-06
1.52177e-06
-6.56397e-06
5.6438e-07
-6.45799e-06
-4.42342e-07
-6.09279e-06
-1.42932e-06
-5.48704e-06
-2.32306e-06
-4.67759e-06
-3.04632e-06
-3.72126e-06
-3.52163e-06
-2.69559e-06
-3.67848e-06
-1.69733e-06
-3.46458e-06
-8.37676e-07
-2.85991e-06
-2.34188e-07
-1.89222e-06
-6.59406e-07
-2.84521e-07
9.67567e-07
-9.89617e-07
2.60299e-06
-1.96738e-06
3.79845e-06
-3.08191e-06
4.50207e-06
-4.21628e-06
4.72553e-06
-5.27494e-06
4.51553e-06
-6.18315e-06
3.93772e-06
-6.8848e-06
3.06606e-06
-7.33982e-06
1.97678e-06
-7.52201e-06
7.4657e-07
-7.41802e-06
-5.46329e-07
-7.02774e-06
-1.8196e-06
-6.36628e-06
-2.98453e-06
-5.46727e-06
-3.94532e-06
-4.387e-06
-4.60191e-06
-3.20783e-06
-4.85765e-06
-2.03946e-06
-4.63294e-06
-1.01585e-06
-3.88352e-06
-2.86358e-07
-2.62172e-06
-9.45764e-07
-3.34519e-07
1.30209e-06
-1.15431e-06
3.42278e-06
-2.27611e-06
4.92025e-06
-3.53635e-06
5.76231e-06
-4.80098e-06
5.99016e-06
-5.96678e-06
5.68133e-06
-6.95798e-06
4.92892e-06
-7.72102e-06
3.82911e-06
-8.21921e-06
2.47497e-06
-8.42843e-06
9.55791e-07
-8.3348e-06
-6.39957e-07
-7.93461e-06
-2.2198e-06
-7.23679e-06
-3.68234e-06
-6.26797e-06
-4.91414e-06
-5.07936e-06
-5.79052e-06
-3.75421e-06
-6.18279e-06
-2.4133e-06
-5.97386e-06
-1.21495e-06
-5.08187e-06
-3.46022e-07
-3.49064e-06
-1.29179e-06
-3.89769e-07
1.69186e-06
-1.33092e-06
4.36393e-06
-2.59715e-06
6.18649e-06
-3.99364e-06
7.15879e-06
-5.36981e-06
7.36633e-06
-6.61822e-06
6.92974e-06
-7.66691e-06
5.97761e-06
-8.46979e-06
4.63199e-06
-8.99767e-06
3.00285e-06
-9.23133e-06
1.18945e-06
-9.1575e-06
-7.1379e-07
-8.76802e-06
-2.60928e-06
-8.06273e-06
-4.38763e-06
-7.05617e-06
-5.92071e-06
-5.78796e-06
-7.05874e-06
-4.33554e-06
-7.63521e-06
-2.82612e-06
-7.48327e-06
-1.44267e-06
-6.46533e-06
-4.16784e-07
-4.51652e-06
-1.70857e-06
-4.53034e-07
2.14489e-06
-1.52428e-06
5.43518e-06
-2.93204e-06
7.59425e-06
-4.4455e-06
8.67226e-06
-5.89976e-06
8.82058e-06
-7.18925e-06
8.21923e-06
-8.25322e-06
7.04159e-06
-9.06003e-06
5.4388e-06
-9.59363e-06
3.53644e-06
-9.84362e-06
1.43944e-06
-9.79923e-06
-7.58173e-07
-9.44752e-06
-2.96099e-06
-8.77611e-06
-5.05904e-06
-7.78139e-06
-6.91543e-06
-6.48245e-06
-8.35767e-06
-4.94045e-06
-9.17721e-06
-3.28005e-06
-9.14368e-06
-1.70597e-06
-8.03939e-06
-5.02737e-07
-5.71976e-06
-2.21131e-06
-5.28748e-07
2.67364e-06
-1.74102e-06
6.64745e-06
-3.28049e-06
9.13372e-06
-4.87529e-06
1.02671e-05
-6.35167e-06
1.0297e-05
-7.61621e-06
9.48378e-06
-8.63017e-06
8.05554e-06
-9.38559e-06
6.19422e-06
-9.88666e-06
4.03751e-06
-1.01367e-05
1.68943e-06
-1.01301e-05
-7.64766e-07
-9.84954e-06
-3.24151e-06
-9.268e-06
-5.64058e-06
-8.35716e-06
-7.82627e-06
-7.10453e-06
-9.6103e-06
-5.53989e-06
-1.07419e-05
-3.7697e-06
-1.09139e-05
-2.01139e-06
-9.7977e-06
-6.09356e-07
-7.1218e-06
-2.82066e-06
-6.24882e-07
3.29852e-06
-1.99139e-06
8.01395e-06
-3.63957e-06
1.07819e-05
-5.25358e-06
1.18811e-05
-6.66312e-06
1.17065e-05
-7.80347e-06
1.06241e-05
-8.67274e-06
8.92482e-06
-9.29787e-06
6.81936e-06
-9.71092e-06
4.45056e-06
-9.93393e-06
1.91244e-06
-9.96998e-06
-7.28711e-07
-9.79897e-06
-3.41252e-06
-9.37811e-06
-6.06144e-06
-8.64915e-06
-8.55522e-06
-7.55609e-06
-1.07034e-05
-6.07771e-06
-1.22202e-05
-4.27749e-06
-1.27141e-05
-2.36488e-06
-1.17103e-05
-7.44991e-07
-8.74169e-06
-3.56565e-06
-7.55994e-07
4.05451e-06
-2.29057e-06
9.54852e-06
-3.999e-06
1.24903e-05
-5.52755e-06
1.34096e-05
-6.73454e-06
1.29135e-05
-7.60939e-06
1.1499e-05
-8.20577e-06
9.52119e-06
-8.59685e-06
7.21044e-06
-8.84885e-06
4.70256e-06
-9.00629e-06
2.06988e-06
-9.08392e-06
-6.5108e-07
-9.06192e-06
-3.43452e-06
-8.88393e-06
-6.23943e-06
-8.46028e-06
-8.97888e-06
-7.68197e-06
-1.14817e-05
-6.4548e-06
-1.34474e-05
-4.76356e-06
-1.44053e-05
-2.76996e-06
-1.37039e-05
-9.23234e-07
-1.05884e-05
-4.48889e-06
-9.47726e-07
5.00224e-06
-2.65625e-06
1.12571e-05
-4.32596e-06
1.416e-05
-5.59657e-06
1.46802e-05
-6.40242e-06
1.37193e-05
-6.82288e-06
1.19194e-05
-6.98677e-06
9.68508e-06
-7.02098e-06
7.24465e-06
-7.02694e-06
4.70851e-06
-7.07127e-06
2.11421e-06
-7.1816e-06
-5.40742e-07
-7.34273e-06
-3.2734e-06
-7.49159e-06
-6.09056e-06
-7.51332e-06
-8.95715e-06
-7.245e-06
-1.175e-05
-6.50137e-06
-1.4191e-05
-5.14442e-06
-1.57623e-05
-3.22009e-06
-1.56282e-05
-1.16591e-06
-1.26426e-05
-5.6548e-06
-1.24054e-06
6.24278e-06
-3.09186e-06
1.31084e-05
-4.52395e-06
1.55921e-05
-5.26e-06
1.54163e-05
-5.39042e-06
1.38498e-05
-5.12621e-06
1.16552e-05
-4.68323e-06
9.24209e-06
-4.2377e-06
6.79912e-06
-3.91658e-06
4.38739e-06
-3.80039e-06
1.99802e-06
-3.92689e-06
-4.14237e-07
-4.29015e-06
-2.91014e-06
-4.833e-06
-5.54772e-06
-5.43356e-06
-8.35658e-06
-5.89144e-06
-1.12921e-05
-5.92969e-06
-1.41528e-05
-5.24688e-06
-1.64451e-05
-3.67331e-06
-1.72018e-05
-1.5028e-06
-1.48131e-05
-7.1576e-06
-1.67845e-06
7.92124e-06
-3.52237e-06
1.49523e-05
-4.33115e-06
1.64009e-05
-4.11392e-06
1.51991e-05
-3.22806e-06
1.29639e-05
-2.04342e-06
1.04706e-05
-8.48406e-07
8.04708e-06
1.59309e-07
5.7914e-06
8.53843e-07
3.69286e-06
1.1596e-06
1.69226e-06
1.03733e-06
-2.91969e-07
4.80401e-07
-2.35321e-06
-4.77037e-07
-4.59028e-06
-1.73817e-06
-7.09545e-06
-3.10828e-06
-9.92202e-06
-4.25659e-06
-1.30045e-05
-4.71204e-06
-1.59896e-05
-3.9766e-06
-1.79373e-05
-1.94994e-06
-1.68397e-05
-9.10754e-06
-2.23985e-06
1.01611e-05
-3.60021e-06
1.63126e-05
-3.09177e-06
1.58925e-05
-1.36593e-06
1.34732e-05
8.65711e-07
1.07323e-05
3.11438e-06
8.22193e-06
5.08912e-06
6.07234e-06
6.63293e-06
4.24759e-06
7.66555e-06
2.66024e-06
8.1444e-06
1.21341e-06
8.04264e-06
-1.90209e-07
7.34138e-06
-1.65195e-06
6.03516e-06
-3.28405e-06
4.15526e-06
-5.21555e-06
1.81914e-06
-7.5859e-06
-6.87513e-07
-1.04978e-05
-2.80968e-06
-1.38675e-05
-3.67495e-06
-1.7072e-05
-2.42266e-06
-1.8092e-05
-1.15302e-05
-2.59981e-06
1.27609e-05
-2.19255e-06
1.59054e-05
7.08225e-07
1.29917e-05
4.45288e-06
9.72857e-06
8.10864e-06
7.07649e-06
1.12689e-05
5.06169e-06
1.3789e-05
3.5522e-06
1.5642e-05
2.3946e-06
1.68415e-05
1.46072e-06
1.7403e-05
6.51969e-07
1.73251e-05
-1.12333e-07
1.65822e-05
-9.09015e-07
1.51237e-05
-1.82564e-06
1.28865e-05
-2.97831e-06
9.83213e-06
-4.53153e-06
6.04004e-06
-6.70573e-06
1.89732e-06
-9.72474e-06
-1.5733e-06
-1.36014e-05
-2.48793e-06
-1.71774e-05
-1.40181e-05
-7.41185e-07
1.35021e-05
4.08798e-06
1.10762e-05
1.02937e-05
6.786e-06
1.57839e-05
4.23834e-06
2.01423e-05
2.7181e-06
2.34363e-05
1.76764e-06
2.58337e-05
1.15486e-06
2.74901e-05
7.38209e-07
2.85197e-05
4.31119e-07
2.89908e-05
1.80837e-07
2.89271e-05
-4.8661e-08
2.83058e-05
-2.87651e-07
2.70523e-05
-5.72165e-07
2.503e-05
-9.5604e-07
2.2032e-05
-1.5335e-06
1.78017e-05
-2.47542e-06
1.2165e-05
-4.08803e-06
5.48331e-06
-6.9197e-06
-8.21294e-08
-1.1612e-05
-1.41003e-05
1.35021e-05
2.45783e-05
3.13643e-05
3.56026e-05
3.83207e-05
4.00884e-05
4.12432e-05
4.19814e-05
4.24126e-05
4.25934e-05
4.25447e-05
4.22571e-05
4.16849e-05
4.07289e-05
3.91954e-05
3.672e-05
3.26319e-05
2.57122e-05
1.41003e-05
)
;

boundaryField
{
    movingWall
    {
        type            calculated;
        value           uniform 0;
    }
    fixedWalls
    {
        type            calculated;
        value           uniform 0;
    }
    frontAndBack
    {
        type            empty;
    }
}


// ************************************************************************* //
