/*--------------------------------*- C++ -*----------------------------------*\
| =========                 |                                                 |
| \\      /  F ield         | OpenFOAM: The Open Source CFD Toolbox           |
|  \\    /   O peration     | Version:  2512                                  |
|   \\  /    A nd           | Website:  www.openfoam.com                      |
|    \\/     M anipulation  |                                                 |
\*---------------------------------------------------------------------------*/
FoamFile
{
    version     2.0;
    format      ascii;
    arch        "LSB;label=32;scalar=64";
    class       volVectorField;
    location    "0.1";
    object      U;
}
// * * * * * * * * * * * * * * * * * * * * * * * * * * * * * * * * * * * * * //

dimensions      [0 1 -1 0 0 0 0];

internalField   nonuniform List<vector> 
400
(
(0.000250671 -0.000246648 0)
(0.000138676 0.000110423 0)
(-0.00116476 0.000556438 0)
(-0.00343985 0.000871741 0)
(-0.0062979 0.00102971 0)
(-0.00934834 0.00104522 0)
(-0.0122421 0.000942787 0)
(-0.0146905 0.000748471 0)
(-0.016471 0.000487011 0)
(-0.0174279 0.000182057 0)
(-0.0174732 -0.000142345 0)
(-0.0165909 -0.000460268 0)
(-0.0148425 -0.000742956 0)
(-0.0123732 -0.000958814 0)
(-0.00941538 -0.0010746 0)
(-0.0062852 -0.00105844 0)
(-0.00336722 -0.000885812 0)
(-0.00107888 -0.000549402 0)
(0.000192152 -9.0152e-05 0)
(0.000264632 0.000258817 0)
(-7.53055e-05 -0.000165885 0)
(-0.00159025 0.00162524 0)
(-0.00562036 0.00356945 0)
(-0.0115663 0.00496604 0)
(-0.0186423 0.00566326 0)
(-0.0260476 0.00567902 0)
(-0.0330184 0.00509846 0)
(-0.0388941 0.00403501 0)
(-0.0431533 0.00261172 0)
(-0.0454282 0.000956278 0)
(-0.0455149 -0.000797403 0)
(-0.0433833 -0.00250625 0)
(-0.0391882 -0.00401694 0)
(-0.0332769 -0.00516912 0)
(-0.0261877 -0.00580487 0)
(-0.0186309 -0.0057872 0)
(-0.0114357 -0.00503092 0)
(-0.00545485 -0.00354783 0)
(-0.00147819 -0.00154456 0)
(-4.19563e-05 0.000222669 0)
(-0.000519296 0.00107904 0)
(-0.00366059 0.00566424 0)
(-0.0104513 0.0100908 0)
(-0.0197309 0.0132284 0)
(-0.030361 0.0147435 0)
(-0.0412704 0.0146357 0)
(-0.0514298 0.013074 0)
(-0.0599392 0.0103145 0)
(-0.0660837 0.00665453 0)
(-0.0693582 0.0024143 0)
(-0.069483 -0.0020656 0)
(-0.0664185 -0.0064229 0)
(-0.0603782 -0.0102753 0)
(-0.0518371 -0.0132317 0)
(-0.0415273 -0.014919 0)
(-0.0304102 -0.0150289 0)
(-0.0196014 -0.0133893 0)
(-0.010248 -0.0100613 0)
(-0.00350789 -0.00549289 0)
(-0.000469821 -0.000941776 0)
(-0.000912947 0.00343571 0)
(-0.00561655 0.0120652 0)
(-0.0151119 0.0196633 0)
(-0.0275715 0.0248657 0)
(-0.041465 0.0272287 0)
(-0.055481 0.0267726 0)
(-0.06839 0.0237849 0)
(-0.0791283 0.0187026 0)
(-0.0868565 0.0120414 0)
(-0.0909823 0.00436293 0)
(-0.0911755 -0.00373391 0)
(-0.0873833 -0.0116133 0)
(-0.0798461 -0.0186077 0)
(-0.0691088 -0.0240381 0)
(-0.0560231 -0.0272606 0)
(-0.0417241 -0.0277445 0)
(-0.0275524 -0.0251883 0)
(-0.0149316 -0.0196626 0)
(-0.00544322 -0.0117986 0)
(-0.000849316 -0.00319284 0)
(-0.00125953 0.00679129 0)
(-0.00744577 0.0206937 0)
(-0.0195832 0.0321025 0)
(-0.0351396 0.0395934 0)
(-0.0521567 0.0427336 0)
(-0.06908 0.0416464 0)
(-0.0845095 0.0367951 0)
(-0.097263 0.0288407 0)
(-0.106423 0.0185499 0)
(-0.111344 0.00675265 0)
(-0.111662 -0.00566946 0)
(-0.107303 -0.0177822 0)
(-0.0985055 -0.0286034 0)
(-0.0858362 -0.037129 0)
(-0.0702123 -0.0423953 0)
(-0.0528963 -0.0435887 0)
(-0.0354336 -0.0402029 0)
(-0.0195439 -0.0322288 0)
(-0.00729486 -0.0203716 0)
(-0.00118764 -0.00643153 0)
(-0.00158602 0.0110815 0)
(-0.00922254 0.0315001 0)
(-0.02398 0.0473839 0)
(-0.0425978 0.0573753 0)
(-0.0626608 0.0611851 0)
(-0.082367 0.0591482 0)
(-0.100166 0.0519843 0)
(-0.114793 0.0406304 0)
(-0.125291 0.0261355 0)
(-0.130994 0.00961249 0)
(-0.131514 -0.00776838 0)
(-0.12675 -0.0247696 0)
(-0.116903 -0.0400818 0)
(-0.102521 -0.0523467 0)
(-0.0845319 -0.0602287 0)
(-0.0642866 -0.0625494 0)
(-0.0435207 -0.0584899 0)
(-0.0242764 -0.047835 0)
(-0.00917247 -0.0312387 0)
(-0.00151942 -0.0106225 0)
(-0.00191841 0.0162957 0)
(-0.0110308 0.0444876 0)
(-0.0284381 0.0655103 0)
(-0.0501068 0.0781835 0)
(-0.0731377 0.0825082 0)
(-0.0954847 0.0791646 0)
(-0.115477 0.0692278 0)
(-0.131812 0.0539733 0)
(-0.14354 0.0347598 0)
(-0.150007 0.0129851 0)
(-0.15082 -0.00990521 0)
(-0.14584 -0.0323871 0)
(-0.135203 -0.0528307 0)
(-0.119378 -0.0695059 0)
(-0.0992462 -0.0806499 0)
(-0.076186 -0.0846195 0)
(-0.0520947 -0.0801404 0)
(-0.0293526 -0.0666241 0)
(-0.0112031 -0.0445207 0)
(-0.00188067 -0.0158055 0)
(-0.00227998 0.0224721 0)
(-0.0129491 0.0597166 0)
(-0.0330787 0.0865061 0)
(-0.0577775 0.101966 0)
(-0.0836312 0.106567 0)
(-0.108371 0.1015 0)
(-0.130258 0.0883161 0)
(-0.148021 0.0686988 0)
(-0.160779 0.0443378 0)
(-0.167943 0.0169017 0)
(-0.16914 -0.0119263 0)
(-0.164188 -0.0403794 0)
(-0.153121 -0.0665399 0)
(-0.136266 -0.0883079 0)
(-0.114366 -0.103444 0)
(-0.0887389 -0.109724 0)
(-0.0613751 -0.105238 0)
(-0.0349822 -0.0887974 0)
(-0.0135129 -0.0604397 0)
(-0.00230673 -0.0220946 0)
(-0.00269453 0.0296932 0)
(-0.0150544 0.0772997 0)
(-0.0380022 0.110398 0)
(-0.0656495 0.128603 0)
(-0.094033 0.133098 0)
(-0.120711 0.125797 0)
(-0.143968 0.108874 0)
(-0.162665 0.0844919 0)
(-0.176086 0.0546838 0)
(-0.183776 0.0213511 0)
(-0.185423 -0.0136522 0)
(-0.180809 -0.0483957 0)
(-0.169828 -0.0807434 0)
(-0.152581 -0.10826 0)
(-0.129555 -0.128198 0)
(-0.101865 -0.137634 0)
(-0.0714692 -0.133793 0)
(-0.041341 -0.114584 0)
(-0.0162276 -0.0793115 0)
(-0.00283535 -0.0296759 0)
(-0.00319426 0.0380891 0)
(-0.0174401 0.0973933 0)
(-0.0433015 0.137176 0)
(-0.0736839 0.157834 0)
(-0.104048 0.161613 0)
(-0.131879 0.151429 0)
(-0.155633 0.130253 0)
(-0.174451 0.100802 0)
(-0.187912 0.0654407 0)
(-0.195792 0.0262377 0)
(-0.197901 -0.0148876 0)
(-0.193999 -0.0559634 0)
(-0.183809 -0.0947537 0)
(-0.167117 -0.128571 0)
(-0.143999 -0.154175 0)
(-0.115164 -0.16783 0)
(-0.0823201 -0.165634 0)
(-0.0485609 -0.144171 0)
(-0.0194841 -0.101525 0)
(-0.00351451 -0.0388114 0)
(-0.0038343 0.0478579 0)
(-0.0202496 0.120197 0)
(-0.0490858 0.166736 0)
(-0.0817497 0.189148 0)
(-0.113137 0.191259 0)
(-0.140848 0.177358 0)
(-0.163735 0.151409 0)
(-0.181428 0.116738 0)
(-0.193964 0.076003 0)
(-0.20147 0.0313291 0)
(-0.203952 -0.0154445 0)
(-0.201186 -0.0624759 0)
(-0.192701 -0.107606 0)
(-0.177885 -0.148051 0)
(-0.156229 -0.180157 0)
(-0.127768 -0.199322 0)
(-0.093625 -0.200232 0)
(-0.0567149 -0.177593 0)
(-0.0234525 -0.127514 0)
(-0.0044164 -0.0498564 0)
(-0.00471869 0.059317 0)
(-0.0237257 0.145959 0)
(-0.0554977 0.198789 0)
(-0.0895707 0.221625 0)
(-0.120396 0.220644 0)
(-0.146025 0.201973 0)
(-0.166042 0.170768 0)
(-0.180829 0.130976 0)
(-0.191067 0.0854435 0)
(-0.197355 0.0362024 0)
(-0.199977 -0.0151792 0)
(-0.198773 -0.0672038 0)
(-0.193098 -0.118026 0)
(-0.181884 -0.165008 0)
(-0.163878 -0.204279 0)
(-0.138123 -0.230419 0)
(-0.104687 -0.236464 0)
(-0.0657747 -0.214562 0)
(-0.0283677 -0.157715 0)
(-0.00566232 -0.0633029 0)
(-0.00604673 0.0730061 0)
(-0.0282793 0.174978 0)
(-0.0626869 0.232701 0)
(-0.096562 0.253688 0)
(-0.124293 0.247589 0)
(-0.14496 0.222907 0)
(-0.159343 0.186113 0)
(-0.168865 0.141681 0)
(-0.175014 0.0924695 0)
(-0.178952 0.0402027 0)
(-0.181303 -0.0140389 0)
(-0.182032 -0.0693413 0)
(-0.180378 -0.124452 0)
(-0.174843 -0.177208 0)
(-0.163342 -0.223868 0)
(-0.143633 -0.258446 0)
(-0.114135 -0.272253 0)
(-0.0754922 -0.254165 0)
(-0.0345636 -0.192472 0)
(-0.00746588 -0.0798648 0)
(-0.00818891 0.0898689 0)
(-0.0345522 0.207533 0)
(-0.0706339 0.267147 0)
(-0.101405 0.2827 0)
(-0.122126 0.268822 0)
(-0.133827 0.236862 0)
(-0.13903 0.194528 0)
(-0.140448 0.146538 0)
(-0.140434 0.0954582 0)
(-0.140698 0.0424499 0)
(-0.142201 -0.0121095 0)
(-0.145088 -0.068104 0)
(-0.148599 -0.125148 0)
(-0.150962 -0.181935 0)
(-0.149349 -0.235371 0)
(-0.140099 -0.279456 0)
(-0.119387 -0.304084 0)
(-0.085089 -0.29436 0)
(-0.0424673 -0.23182 0)
(-0.0101975 -0.10062 0)
(-0.0117707 0.111514 0)
(-0.0433432 0.243586 0)
(-0.0785385 0.299453 0)
(-0.101043 0.304367 0)
(-0.108959 0.279657 0)
(-0.106532 0.239578 0)
(-0.098505 0.192553 0)
(-0.0888899 0.142967 0)
(-0.0807211 0.0926526 0)
(-0.0760562 0.0419426 0)
(-0.0760696 -0.00964034 0)
(-0.081098 -0.0628934 0)
(-0.0905596 -0.118474 0)
(-0.102732 -0.176287 0)
(-0.114445 -0.234516 0)
(-0.120865 -0.288079 0)
(-0.11563 -0.326427 0)
(-0.0924683 -0.331131 0)
(-0.0523727 -0.274931 0)
(-0.0144228 -0.127169 0)
(-0.0175765 0.140611 0)
(-0.0548758 0.281873 0)
(-0.0830257 0.324293 0)
(-0.0884838 0.31194 0)
(-0.0757083 0.273854 0)
(-0.0533918 0.226159 0)
(-0.0284457 0.17673 0)
(-0.00565836 0.128685 0)
(0.0118411 0.0826128 0)
(0.0221207 0.0378227 0)
(0.0240755 -0.00701461 0)
(0.0172387 -0.0535263 0)
(0.00181944 -0.10337 0)
(-0.0210035 -0.157824 0)
(-0.0485058 -0.216932 0)
(-0.0756008 -0.277764 0)
(-0.0939619 -0.331215 0)
(-0.0923105 -0.35717 0)
(-0.0633974 -0.318913 0)
(-0.0206614 -0.161866 0)
(-0.0255594 0.181801 0)
(-0.0659703 0.317521 0)
(-0.0735513 0.331049 0)
(-0.0484247 0.295049 0)
(-0.00611011 0.243812 0)
(0.0404967 0.191967 0)
(0.0837508 0.144666 0)
(0.119479 0.102663 0)
(0.145529 0.0649308 0)
(0.160808 0.0298042 0)
(0.164693 -0.00463463 0)
(0.156733 -0.0404751 0)
(0.136626 -0.0799942 0)
(0.104475 -0.125591 0)
(0.0614673 -0.179352 0)
(0.0111965 -0.241627 0)
(-0.0382509 -0.307488 0)
(-0.0719571 -0.359746 0)
(-0.0703073 -0.356253 0)
(-0.0280464 -0.208434 0)
(-0.0300452 0.23961 0)
(-0.0612992 0.335385 0)
(-0.0220765 0.300215 0)
(0.0503102 0.23992 0)
(0.127159 0.182727 0)
(0.19643 0.135156 0)
(0.253604 0.0971826 0)
(0.297381 0.0666757 0)
(0.327851 0.0412386 0)
(0.345434 0.0187304 0)
(0.350331 -0.00277213 0)
(0.342295 -0.025178 0)
(0.320541 -0.0506464 0)
(0.283831 -0.0818665 0)
(0.230899 -0.122238 0)
(0.161661 -0.175448 0)
(0.0795655 -0.243188 0)
(-0.00341045 -0.318781 0)
(-0.055252 -0.368162 0)
(-0.0289303 -0.268085 0)
(0.0069942 0.28261 0)
(0.0187214 0.2948 0)
(0.139142 0.210768 0)
(0.264417 0.143332 0)
(0.364114 0.0970438 0)
(0.439982 0.0656384 0)
(0.49625 0.0441163 0)
(0.536282 0.0287927 0)
(0.56278 0.0171391 0)
(0.577596 0.00746093 0)
(0.581664 -0.00148229 0)
(0.575006 -0.0108008 0)
(0.556676 -0.0217736 0)
(0.524584 -0.0362362 0)
(0.475321 -0.057139 0)
(0.404197 -0.0892446 0)
(0.305052 -0.139574 0)
(0.17345 -0.216151 0)
(0.0399886 -0.311483 0)
(0.0172252 -0.30077 0)
(0.298513 0.146503 0)
(0.395147 0.127586 0)
(0.557442 0.0760391 0)
(0.67451 0.0436545 0)
(0.743804 0.0255021 0)
(0.787021 0.0151789 0)
(0.81531 0.00916137 0)
(0.833738 0.00547265 0)
(0.845137 0.00300447 0)
(0.851107 0.00113999 0)
(0.852401 -0.000495838 0)
(0.849131 -0.00219991 0)
(0.840776 -0.00431166 0)
(0.825952 -0.0073846 0)
(0.801927 -0.0124794 0)
(0.763511 -0.0217069 0)
(0.699109 -0.0392065 0)
(0.584007 -0.0725965 0)
(0.414713 -0.127951 0)
(0.30769 -0.149861 0)
)
;

boundaryField
{
    movingWall
    {
        type            fixedValue;
        value           uniform (1 0 0);
    }
    fixedWalls
    {
        type            noSlip;
    }
    frontAndBack
    {
        type            empty;
    }
}


// ************************************************************************* //
