/*--------------------------------*- C++ -*----------------------------------*\
| =========                 |                                                 |
| \\      /  F ield         | OpenFOAM: The Open Source CFD Toolbox           |
|  \\    /   O peration     | Version:  2512                                  |
|   \\  /    A nd           | Website:  www.openfoam.com                      |
|    \\/     M anipulation  |                                                 |
\*---------------------------------------------------------------------------*/
FoamFile
{
    version     2.0;
    format      ascii;
    arch        "LSB;label=32;scalar=64";
    class       volScalarField;
    location    "0.5";
    object      p;
}
// * * * * * * * * * * * * * * * * * * * * * * * * * * * * * * * * * * * * * //

dimensions      [0 2 -2 0 0 0 0];

internalField   nonuniform List<scalar> 
400
(
-2.45563e-06
-0.00404406
-0.00609496
-0.012182
-0.0172007
-0.0190174
-0.0165622
-0.00929648
0.00289834
0.0265977
0.00401145
-0.000161659
-0.00151711
-0.00711624
-0.011049
-0.0122206
-0.00993788
-0.00386243
0.00608121
0.0278615
0.00610777
0.00111774
-0.000245522
-0.00549266
-0.0090696
-0.0100571
-0.00781225
-0.00203708
0.00740475
0.028141
0.0125942
0.00654521
0.00461027
-0.00104547
-0.00442142
-0.00524644
-0.00316528
0.00205133
0.010668
0.0287882
0.0188167
0.0106558
0.00800506
0.00110837
-0.00271375
-0.00373733
-0.0018415
0.00311371
0.0113886
0.0285845
0.0227061
0.0122324
0.00885672
0.000407304
-0.00407631
-0.0053541
-0.00351393
0.00149782
0.00991435
0.0274126
0.0226443
0.0099955
0.0059281
-0.00416593
-0.009318
-0.010719
-0.00864689
-0.00315743
0.00598021
0.0250014
0.0167247
0.00234036
-0.00223035
-0.0140679
-0.019791
-0.0210159
-0.0182312
-0.0116345
-0.00110638
0.0208698
0.00272787
-0.013228
-0.0177937
-0.0318788
-0.0380034
-0.0385015
-0.0342326
-0.0255003
-0.0125205
0.0143097
-0.0356355
-0.0571794
-0.0638171
-0.0789863
-0.0837827
-0.0812601
-0.0727817
-0.0589389
-0.0397711
-0.00201457
0.0438457
0.0680911
0.0807585
0.0883228
0.0908106
0.088793
0.0834842
0.0772056
0.0751287
0.0710704
0.0425792
0.0648996
0.0752606
0.0816054
0.0839249
0.0825784
0.0783778
0.0725908
0.071222
0.0670397
0.0422729
0.0635419
0.0733987
0.0794447
0.0817314
0.0805747
0.0767325
0.0712983
0.0699224
0.0649203
0.0412451
0.0599513
0.0690673
0.0746287
0.0767908
0.075794
0.0721112
0.0662198
0.0642626
0.0581924
0.0404063
0.0583762
0.0673648
0.072861
0.0749503
0.0737558
0.0695368
0.0622891
0.0595862
0.0513455
0.0394909
0.0581059
0.0675999
0.0734978
0.0757648
0.0743817
0.0694116
0.0604357
0.0569527
0.0462508
0.0382389
0.0589279
0.0697048
0.0766322
0.07954
0.0782421
0.0725718
0.0617194
0.05746
0.044307
0.0363084
0.060889
0.0738424
0.0827157
0.0870498
0.086384
0.0802564
0.0674037
0.0625426
0.0471553
0.0329585
0.0642242
0.0805925
0.0928852
0.0999623
0.100931
0.0947875
0.0794659
0.0745844
0.056649
0.024562
0.0691568
0.095685
0.116981
0.131809
0.138536
0.135158
0.118525
0.110984
0.0865679
-0.077437
-0.101207
-0.108664
-0.12376
-0.125772
-0.119383
-0.106527
-0.0879743
-0.0631835
-0.0162183
-0.183089
-0.215353
-0.220358
-0.230123
-0.221897
-0.203298
-0.177976
-0.147801
-0.113177
-0.0447955
-0.287192
-0.315522
-0.322062
-0.324181
-0.302834
-0.270231
-0.23195
-0.18986
-0.14364
-0.0642258
-0.427056
-0.449512
-0.453823
-0.437561
-0.393584
-0.340433
-0.285331
-0.229585
-0.171696
-0.0801614
-0.631456
-0.63243
-0.628465
-0.574134
-0.49293
-0.410336
-0.333675
-0.262444
-0.193309
-0.0907546
-0.948469
-0.886058
-0.861474
-0.734374
-0.595895
-0.47303
-0.370122
-0.282717
-0.203993
-0.0940337
-1.48062
-1.24459
-1.17042
-0.903328
-0.683746
-0.512881
-0.383058
-0.282833
-0.199614
-0.0892556
-2.37593
-1.75489
-1.56458
-1.02477
-0.702167
-0.493212
-0.350871
-0.251128
-0.174883
-0.0767211
-2.85448
-1.8352
-1.67033
-1.0286
-0.680951
-0.46876
-0.32931
-0.235119
-0.166031
-0.0720062
-3.80932
-2.58633
-2.00911
-1.0389
-0.596341
-0.378962
-0.255302
-0.180522
-0.12599
-0.0574521
0.0166545
0.07323
0.108233
0.137795
0.160506
0.174087
0.175454
0.159308
0.150764
0.12304
0.000323748
0.0826739
0.134124
0.182699
0.225849
0.259288
0.276928
0.268949
0.263135
0.226343
-0.0104573
0.0866559
0.153219
0.21876
0.281215
0.335496
0.372417
0.376076
0.369048
0.336926
-0.0194079
0.0925936
0.174094
0.257931
0.343512
0.426052
0.493415
0.521716
0.51819
0.494905
-0.0244277
0.100418
0.195563
0.298622
0.411509
0.531668
0.645801
0.721724
0.729171
0.734712
-0.0245275
0.108702
0.215035
0.337197
0.481422
0.649935
0.832314
0.99455
1.02725
1.1098
-0.0205248
0.11368
0.225604
0.363098
0.538777
0.763106
1.03937
1.36107
1.45059
1.72761
-0.0161242
0.107361
0.21308
0.352116
0.544173
0.814662
1.20994
1.83013
2.04465
2.72483
-0.0152669
0.103666
0.20356
0.3379
0.527928
0.803788
1.22909
1.95709
2.14233
3.23796
-0.0136707
0.0797489
0.167266
0.284624
0.461447
0.748851
1.28111
2.3488
2.96207
4.2625
)
;

boundaryField
{
    movingWall
    {
        type            zeroGradient;
    }
    fixedWalls
    {
        type            zeroGradient;
    }
    frontAndBack
    {
        type            empty;
    }
}


// ************************************************************************* //
