/*--------------------------------*- C++ -*----------------------------------*\
| =========                 |                                                 |
| \\      /  F ield         | OpenFOAM: The Open Source CFD Toolbox           |
|  \\    /   O peration     | Version:  2512                                  |
|   \\  /    A nd           | Website:  www.openfoam.com                      |
|    \\/     M anipulation  |                                                 |
\*---------------------------------------------------------------------------*/
FoamFile
{
    version     2.0;
    format      ascii;
    arch        "LSB;label=32;scalar=64";
    class       volVectorField;
    location    "0.5";
    object      U;
}
// * * * * * * * * * * * * * * * * * * * * * * * * * * * * * * * * * * * * * //

dimensions      [0 1 -1 0 0 0 0];

internalField   nonuniform List<vector> 
400
(
(0.00019386 -0.000190549 0)
(-0.000256091 0.000284622 0)
(-0.000435476 0.000401883 0)
(-0.00194413 0.000927243 0)
(-0.00442436 0.00128549 0)
(-0.00764989 0.00148372 0)
(-0.0113304 0.00154253 0)
(-0.0153576 0.00148991 0)
(-0.0189034 0.00119389 0)
(-0.0209713 0.000294274 0)
(-0.000259982 0.000240093 0)
(-0.00152389 0.00152918 0)
(-0.00207976 0.00191684 0)
(-0.00552373 0.00351051 0)
(-0.0106678 0.00472599 0)
(-0.016924 0.00535853 0)
(-0.0236364 0.00537302 0)
(-0.0302621 0.00483098 0)
(-0.036502 0.00378532 0)
(-0.0407664 0.000985322 0)
(-0.000371091 0.00040587 0)
(-0.00191599 0.00208555 0)
(-0.00256255 0.00256381 0)
(-0.00676074 0.00470374 0)
(-0.0128928 0.00630312 0)
(-0.0202428 0.00711613 0)
(-0.0280292 0.00710771 0)
(-0.0354134 0.00631631 0)
(-0.0414337 0.00473709 0)
(-0.0477769 0.0012692 0)
(-0.000919742 0.00189486 0)
(-0.00367746 0.00556456 0)
(-0.00491948 0.00677693 0)
(-0.0114334 0.0109584 0)
(-0.0205814 0.0140411 0)
(-0.0312869 0.0155724 0)
(-0.0424685 0.0154519 0)
(-0.0531267 0.0137287 0)
(-0.0621915 0.0102948 0)
(-0.0704778 0.00275414 0)
(-0.00140485 0.00452704 0)
(-0.00544505 0.0111475 0)
(-0.00725226 0.013388 0)
(-0.0161206 0.0203983 0)
(-0.0282657 0.0254275 0)
(-0.0421952 0.0277766 0)
(-0.0564822 0.0273072 0)
(-0.0699538 0.0240569 0)
(-0.081481 0.0179126 0)
(-0.0917699 0.00479324 0)
(-0.00188351 0.00839481 0)
(-0.00716181 0.0188237 0)
(-0.00949991 0.0223549 0)
(-0.0207531 0.0329004 0)
(-0.0358713 0.0401964 0)
(-0.0529112 0.043333 0)
(-0.070128 0.0421848 0)
(-0.0861904 0.0368745 0)
(-0.0998885 0.0273341 0)
(-0.112091 0.0073537 0)
(-0.00243132 0.0136536 0)
(-0.0088851 0.0286775 0)
(-0.0117285 0.0337336 0)
(-0.0254446 0.0485148 0)
(-0.0435491 0.0582679 0)
(-0.0635981 0.062068 0)
(-0.0836239 0.0599234 0)
(-0.102147 0.0521047 0)
(-0.11781 0.0385549 0)
(-0.131858 0.0104985 0)
(-0.00319095 0.0209003 0)
(-0.0107833 0.0411162 0)
(-0.0140243 0.04768 0)
(-0.0304427 0.067613 0)
(-0.051587 0.0800762 0)
(-0.074582 0.0843902 0)
(-0.0972967 0.0808059 0)
(-0.118021 0.0698819 0)
(-0.135247 0.0518243 0)
(-0.151269 0.0143715 0)
(-0.0040084 0.0301083 0)
(-0.0131395 0.0573264 0)
(-0.0162865 0.0645431 0)
(-0.0357732 0.0912883 0)
(-0.0602021 0.107041 0)
(-0.0861916 0.111664 0)
(-0.111374 0.105978 0)
(-0.133787 0.0909948 0)
(-0.151818 0.067765 0)
(-0.170383 0.0189682 0)
(-0.00493189 0.0453737 0)
(-0.0164265 0.0859859 0)
(-0.0214109 0.0995004 0)
(-0.0449298 0.136058 0)
(-0.0739222 0.156267 0)
(-0.103708 0.160195 0)
(-0.131483 0.14986 0)
(-0.155616 0.127289 0)
(-0.175431 0.0937071 0)
(-0.193826 0.0278602 0)
(-0.0210219 -0.000243471 0)
(-0.0190547 -0.00118302 0)
(-0.0154911 -0.00151127 0)
(-0.0113933 -0.00158044 0)
(-0.00762906 -0.00151965 0)
(-0.00434276 -0.00130297 0)
(-0.00184865 -0.000918797 0)
(-0.000367305 -0.000376116 0)
(-0.000199835 -0.000258568 0)
(0.000216549 0.000209895 0)
(-0.040845 -0.000851946 0)
(-0.0367414 -0.00375968 0)
(-0.030474 -0.00488998 0)
(-0.0237442 -0.0054815 0)
(-0.0169019 -0.00546419 0)
(-0.0105473 -0.00478044 0)
(-0.005375 -0.00349351 0)
(-0.00196947 -0.00185195 0)
(-0.00142909 -0.00146131 0)
(-0.000216986 -0.000181765 0)
(-0.0478657 -0.00109882 0)
(-0.0416999 -0.00470779 0)
(-0.0356567 -0.00639334 0)
(-0.0281571 -0.00724903 0)
(-0.020223 -0.00725423 0)
(-0.012759 -0.0063748 0)
(-0.00659284 -0.00468179 0)
(-0.00243843 -0.00247996 0)
(-0.00181012 -0.00200026 0)
(-0.000322553 -0.000328114 0)
(-0.070607 -0.00241928 0)
(-0.0625963 -0.0102277 0)
(-0.0535175 -0.0138787 0)
(-0.0427088 -0.0157338 0)
(-0.0313225 -0.0158538 0)
(-0.0204464 -0.0141969 0)
(-0.0112308 -0.0109307 0)
(-0.00475672 -0.00662061 0)
(-0.00353897 -0.00540006 0)
(-0.000854302 -0.00173828 0)
(-0.0919714 -0.00419917 0)
(-0.0821487 -0.0177665 0)
(-0.0706526 -0.0242899 0)
(-0.0570005 -0.0277845 0)
(-0.04243 -0.0282771 0)
(-0.0282356 -0.0257328 0)
(-0.0159478 -0.0203983 0)
(-0.00707977 -0.0131584 0)
(-0.00529466 -0.0108961 0)
(-0.00132671 -0.00426458 0)
(-0.112427 -0.00632343 0)
(-0.101052 -0.0270106 0)
(-0.0874954 -0.0371713 0)
(-0.071238 -0.0429148 0)
(-0.0536264 -0.0441636 0)
(-0.0361589 -0.0407775 0)
(-0.0207386 -0.0330279 0)
(-0.00937575 -0.0220997 0)
(-0.00704263 -0.0185189 0)
(-0.00180097 -0.00801704 0)
(-0.132419 -0.00871113 0)
(-0.119806 -0.0378606 0)
(-0.104495 -0.0524003 0)
(-0.0857959 -0.0609706 0)
(-0.0652347 -0.0633977 0)
(-0.044503 -0.0593508 0)
(-0.0258076 -0.0489801 0)
(-0.0117562 -0.0335864 0)
(-0.00887668 -0.0284278 0)
(-0.00236537 -0.0131907 0)
(-0.15217 -0.0112863 0)
(-0.138519 -0.0504341 0)
(-0.121994 -0.0700302 0)
(-0.101182 -0.0822357 0)
(-0.0777692 -0.0864775 0)
(-0.0537291 -0.0820407 0)
(-0.0315309 -0.0688055 0)
(-0.0143692 -0.0479168 0)
(-0.0110192 -0.0411637 0)
(-0.00318725 -0.0204666 0)
(-0.171745 -0.0136703 0)
(-0.156917 -0.0651775 0)
(-0.140134 -0.0907276 0)
(-0.117858 -0.10787 0)
(-0.0918175 -0.114932 0)
(-0.0642884 -0.110542 0)
(-0.038099 -0.093898 0)
(-0.0171839 -0.0656643 0)
(-0.0138423 -0.0581589 0)
(-0.00414642 -0.0299623 0)
(-0.196078 -0.0169567 0)
(-0.183974 -0.0871964 0)
(-0.166676 -0.125328 0)
(-0.143325 -0.152359 0)
(-0.114619 -0.166099 0)
(-0.0824717 -0.163698 0)
(-0.05034 -0.142786 0)
(-0.0239684 -0.103838 0)
(-0.0183708 -0.0895009 0)
(-0.00546762 -0.0464975 0)
(-0.00591528 0.0578543 0)
(-0.0192559 0.108247 0)
(-0.0248999 0.124617 0)
(-0.0512186 0.16792 0)
(-0.0823971 0.189827 0)
(-0.113129 0.191969 0)
(-0.140658 0.17768 0)
(-0.163713 0.149877 0)
(-0.182046 0.10988 0)
(-0.199197 0.03363 0)
(-0.00918815 0.086036 0)
(-0.0264497 0.154105 0)
(-0.0321235 0.171067 0)
(-0.062601 0.223658 0)
(-0.0944031 0.244626 0)
(-0.12182 0.240163 0)
(-0.14313 0.216822 0)
(-0.158393 0.179985 0)
(-0.168365 0.132918 0)
(-0.179037 0.0415868 0)
(-0.0116855 0.10501 0)
(-0.0314566 0.182076 0)
(-0.0391641 0.20588 0)
(-0.0706186 0.260975 0)
(-0.0993991 0.277279 0)
(-0.119725 0.264842 0)
(-0.131602 0.233429 0)
(-0.136966 0.189651 0)
(-0.138238 0.136588 0)
(-0.139529 0.0446045 0)
(-0.0152492 0.125934 0)
(-0.0386624 0.213774 0)
(-0.047478 0.241069 0)
(-0.0774399 0.293809 0)
(-0.098586 0.300789 0)
(-0.106264 0.277442 0)
(-0.103432 0.237332 0)
(-0.0944382 0.188127 0)
(-0.083608 0.132622 0)
(-0.0736146 0.043938 0)
(-0.0213303 0.155311 0)
(-0.047522 0.247684 0)
(-0.0566076 0.275377 0)
(-0.0795334 0.31724 0)
(-0.0850364 0.308696 0)
(-0.0725707 0.272243 0)
(-0.0492428 0.224222 0)
(-0.0221986 0.172545 0)
(0.00281729 0.119083 0)
(0.0251986 0.0395301 0)
(-0.0290887 0.196508 0)
(-0.0535712 0.279581 0)
(-0.0610175 0.303222 0)
(-0.0653787 0.321517 0)
(-0.0426277 0.291145 0)
(-0.00159682 0.242098 0)
(0.0455279 0.190454 0)
(0.0907968 0.141599 0)
(0.129158 0.0953609 0)
(0.162617 0.0313259 0)
(-0.0286653 0.246504 0)
(-0.0394833 0.29808 0)
(-0.0404689 0.30951 0)
(-0.00619359 0.290383 0)
(0.0590485 0.2378 0)
(0.131836 0.183484 0)
(0.199296 0.136505 0)
(0.25656 0.0975986 0)
(0.302707 0.0639708 0)
(0.341358 0.0204123 0)
(0.036939 0.255716 0)
(0.057232 0.270883 0)
(0.0698648 0.26458 0)
(0.156442 0.214343 0)
(0.261116 0.155211 0)
(0.352011 0.109311 0)
(0.424473 0.0758708 0)
(0.480898 0.0514822 0)
(0.525632 0.0324631 0)
(0.556233 0.00978864 0)
(0.0969826 0.235484 0)
(0.112323 0.246039 0)
(0.129528 0.237664 0)
(0.238971 0.18384 0)
(0.35057 0.128759 0)
(0.439276 0.0885058 0)
(0.506331 0.0603179 0)
(0.553971 0.0406855 0)
(0.582186 0.0264325 0)
(0.62349 0.00757187 0)
(0.271875 0.162511 0)
(0.328463 0.152191 0)
(0.369703 0.141047 0)
(0.507845 0.092824 0)
(0.629478 0.0548822 0)
(0.704844 0.033162 0)
(0.749391 0.0208808 0)
(0.773213 0.013843 0)
(0.790752 0.00861963 0)
(0.817046 0.00204632 0)
(-0.201879 -0.0178518 0)
(-0.192443 -0.0998671 0)
(-0.177537 -0.145981 0)
(-0.155928 -0.18016 0)
(-0.127747 -0.199787 0)
(-0.0943856 -0.200708 0)
(-0.0592203 -0.178742 0)
(-0.0289046 -0.132445 0)
(-0.0223702 -0.114866 0)
(-0.0068579 -0.0606704 0)
(-0.181599 -0.0169756 0)
(-0.179071 -0.115747 0)
(-0.173314 -0.171235 0)
(-0.160841 -0.217663 0)
(-0.140273 -0.250255 0)
(-0.111028 -0.261619 0)
(-0.0748973 -0.243116 0)
(-0.0389514 -0.187319 0)
(-0.0321267 -0.168827 0)
(-0.0112633 -0.0940003 0)
(-0.141205 -0.0152438 0)
(-0.145686 -0.114812 0)
(-0.148466 -0.176932 0)
(-0.146691 -0.23179 0)
(-0.137097 -0.274978 0)
(-0.116648 -0.297522 0)
(-0.0846066 -0.28645 0)
(-0.0476966 -0.228894 0)
(-0.0384109 -0.202787 0)
(-0.0144528 -0.117412 0)
(-0.07367 -0.0123495 0)
(-0.0850105 -0.107763 0)
(-0.0983967 -0.171777 0)
(-0.111052 -0.232223 0)
(-0.11775 -0.285623 0)
(-0.112529 -0.322085 0)
(-0.0906306 -0.323784 0)
(-0.0566673 -0.270519 0)
(-0.046286 -0.240656 0)
(-0.0185464 -0.143253 0)
(0.0272346 -0.00930556 0)
(0.00963771 -0.0937334 0)
(-0.0149592 -0.153805 0)
(-0.0443256 -0.215137 0)
(-0.0722571 -0.276127 0)
(-0.0899767 -0.327478 0)
(-0.0877065 -0.348283 0)
(-0.0642601 -0.30936 0)
(-0.0541818 -0.279505 0)
(-0.0248307 -0.178065 0)
(0.166663 -0.00647949 0)
(0.144302 -0.0729663 0)
(0.110316 -0.122977 0)
(0.0658099 -0.178287 0)
(0.0153756 -0.240231 0)
(-0.0323681 -0.303466 0)
(-0.0627431 -0.348555 0)
(-0.0631768 -0.337611 0)
(-0.0560329 -0.313033 0)
(-0.0314468 -0.22394 0)
(0.346454 -0.00409732 0)
(0.322787 -0.0479986 0)
(0.284348 -0.0826285 0)
(0.231573 -0.124289 0)
(0.164207 -0.177217 0)
(0.0864922 -0.241931 0)
(0.0118943 -0.308341 0)
(-0.0320886 -0.337846 0)
(-0.0331965 -0.327214 0)
(-0.0264766 -0.274014 0)
(0.560587 -0.00217207 0)
(0.543692 -0.0243525 0)
(0.507048 -0.0427476 0)
(0.457035 -0.0672107 0)
(0.388232 -0.102453 0)
(0.296821 -0.153448 0)
(0.186059 -0.221475 0)
(0.089215 -0.280602 0)
(0.0737837 -0.288144 0)
(0.0463063 -0.274414 0)
(0.627304 -0.00185719 0)
(0.598534 -0.0198287 0)
(0.577304 -0.0336528 0)
(0.53568 -0.0530762 0)
(0.47273 -0.0822686 0)
(0.38484 -0.126159 0)
(0.269011 -0.188198 0)
(0.150108 -0.249831 0)
(0.130259 -0.259681 0)
(0.107378 -0.250046 0)
(0.818841 -0.000722495 0)
(0.799212 -0.00661889 0)
(0.786025 -0.0112597 0)
(0.766441 -0.0175662 0)
(0.726513 -0.0290356 0)
(0.655327 -0.0506934 0)
(0.534216 -0.0907228 0)
(0.389985 -0.143197 0)
(0.345889 -0.15549 0)
(0.282622 -0.167489 0)
)
;

boundaryField
{
    movingWall
    {
        type            fixedValue;
        value           uniform (1 0 0);
    }
    fixedWalls
    {
        type            noSlip;
    }
    frontAndBack
    {
        type            empty;
    }
}


// ************************************************************************* //
