/*--------------------------------*- C++ -*----------------------------------*\
| =========                 |                                                 |
| \\      /  F ield         | OpenFOAM: The Open Source CFD Toolbox           |
|  \\    /   O peration     | Version:  2512                                  |
|   \\  /    A nd           | Website:  www.openfoam.com                      |
|    \\/     M anipulation  |                                                 |
\*---------------------------------------------------------------------------*/
FoamFile
{
    version     2.0;
    format      ascii;
    arch        "LSB;label=32;scalar=64";
    class       volScalarField;
    location    "0.3";
    object      p;
}
// * * * * * * * * * * * * * * * * * * * * * * * * * * * * * * * * * * * * * //

dimensions      [0 2 -2 0 0 0 0];

internalField   nonuniform List<scalar> 
400
(
5.48987e-06
-0.00583121
-0.0129711
-0.0184217
-0.0204398
-0.0182464
-0.0117812
-0.00148971
0.0118331
0.0271469
0.0432443
0.0588251
0.0725826
0.0833139
0.090059
0.0922731
0.0900318
0.0842519
0.0768834
0.0710625
0.00579012
-0.000218465
-0.00579643
-0.00953082
-0.0105858
-0.00841947
-0.00295793
0.00548367
0.016309
0.0287137
0.0417473
0.0543792
0.065576
0.0743968
0.0801059
0.0823016
0.0810649
0.0770471
0.0712739
0.0653101
0.0133464
0.00502668
-0.000994116
-0.00442003
-0.00527015
-0.00326136
0.00160454
0.00902917
0.0185029
0.0293492
0.0407643
0.0518675
0.0617655
0.0696327
0.0748031
0.0768741
0.0758376
0.072084
0.0658116
0.0575241
0.0201509
0.00868388
0.00122558
-0.00266665
-0.0037209
-0.00188431
0.00273206
0.00978501
0.0187804
0.0290947
0.0399912
0.0506527
0.0602312
0.0679138
0.0730009
0.0749991
0.0737629
0.0694556
0.0616143
0.0500911
0.0245167
0.0097572
0.000589831
-0.00398392
-0.00530003
-0.00350531
0.00117653
0.00833586
0.0174627
0.0279491
0.0390843
0.0500685
0.0600467
0.0681623
0.0736233
0.0757944
0.0743649
0.069289
0.0595413
0.0445228
0.0251969
0.00713053
-0.00380149
-0.00905312
-0.0105091
-0.00849719
-0.00335422
0.00443149
0.0143147
0.0256796
0.0378135
0.0499021
0.061046
0.0703002
0.0767312
0.079513
0.0781338
0.0723325
0.0605596
0.0418715
0.0211176
-0.000285188
-0.012933
-0.0187037
-0.0200257
-0.0174101
-0.0113148
-0.00231665
0.00899269
0.0219775
0.03591
0.0499436
0.0631103
0.0743424
0.0825181
0.0865648
0.0857142
0.0794453
0.0656454
0.0430478
0.0111733
-0.0136441
-0.0278719
-0.0338463
-0.0345976
-0.0308522
-0.0232079
-0.0123408
0.00110835
0.0164864
0.0330538
0.0499336
0.0660819
0.080287
0.0911965
0.0974243
0.0978617
0.0916328
0.0759262
0.0490854
-0.00592852
-0.0342951
-0.0498643
-0.0555376
-0.0550819
-0.0495074
-0.0395868
-0.0261074
-0.00975212
0.00882687
0.0289035
0.0495944
0.0697966
0.0881517
0.103043
0.112694
0.115539
0.110186
0.0928691
0.0613703
-0.0318075
-0.0639072
-0.0804076
-0.0849922
-0.0824091
-0.0740688
-0.0609723
-0.0440289
-0.0239449
-0.00133142
0.0231496
0.0486633
0.0740957
0.0979697
0.118391
0.133117
0.139973
0.136808
0.11848
0.0818782
-0.0686022
-0.104636
-0.12133
-0.12357
-0.117501
-0.105115
-0.0877077
-0.0663161
-0.0416287
-0.0141484
0.0156114
0.0469571
0.0788572
0.109792
0.137618
0.159575
0.172706
0.173762
0.155564
0.113494
-0.119315
-0.159391
-0.174893
-0.172731
-0.16113
-0.142915
-0.119747
-0.0927661
-0.0625676
-0.0294388
0.00638085
0.0444795
0.0840585
0.123703
0.161131
0.193073
0.215641
0.224052
0.208095
0.160523
-0.188509
-0.232274
-0.243908
-0.233916
-0.213674
-0.187139
-0.156359
-0.122489
-0.085887
-0.0464618
-0.00400479
0.0415472
0.0898482
0.139831
0.189315
0.234676
0.271041
0.291627
0.281784
0.229619
-0.283813
-0.329328
-0.33179
-0.308244
-0.274688
-0.236424
-0.195751
-0.153598
-0.109829
-0.0637338
-0.0144264
0.0388746
0.0965641
0.158283
0.222375
0.285277
0.34136
0.381524
0.384938
0.331612
-0.419111
-0.459667
-0.442292
-0.395756
-0.342113
-0.287728
-0.234606
-0.18292
-0.131599
-0.0789734
-0.0232009
0.0374898
0.104568
0.178851
0.259871
0.344968
0.428582
0.49963
0.529654
0.485095
-0.620305
-0.636701
-0.578607
-0.494166
-0.411232
-0.335652
-0.267774
-0.20597
-0.147528
-0.0893714
-0.0284117
0.0383658
0.113827
0.200493
0.299995
0.412038
0.533016
0.651712
0.732705
0.722044
-0.935783
-0.878455
-0.741731
-0.597967
-0.474391
-0.372651
-0.288861
-0.217754
-0.153943
-0.0924511
-0.0287024
0.0417142
0.123286
0.220743
0.33895
0.482182
0.652057
0.841407
1.01522
1.09719
-1.47722
-1.20582
-0.920585
-0.691602
-0.517373
-0.387569
-0.29008
-0.213348
-0.148125
-0.0872076
-0.0245611
0.0454839
0.128976
0.233121
0.36716
0.542773
0.771553
1.0595
1.40242
1.73089
-2.54621
-1.62525
-1.04413
-0.711618
-0.496091
-0.352297
-0.254685
-0.183689
-0.12623
-0.0736173
-0.0192504
0.0428411
0.119311
0.218934
0.355017
0.548304
0.82699
1.2362
1.90602
2.93142
-4.37956
-2.04003
-0.972831
-0.563392
-0.35774
-0.239978
-0.170003
-0.123708
-0.0874324
-0.0534828
-0.0166506
0.0276483
0.0845725
0.161661
0.272296
0.442002
0.718325
1.22491
2.40647
4.86184
)
;

boundaryField
{
    movingWall
    {
        type            zeroGradient;
    }
    fixedWalls
    {
        type            zeroGradient;
    }
    frontAndBack
    {
        type            empty;
    }
}


// ************************************************************************* //
