/*--------------------------------*- C++ -*----------------------------------*\
| =========                 |                                                 |
| \\      /  F ield         | OpenFOAM: The Open Source CFD Toolbox           |
|  \\    /   O peration     | Version:  2512                                  |
|   \\  /    A nd           | Website:  www.openfoam.com                      |
|    \\/     M anipulation  |                                                 |
\*---------------------------------------------------------------------------*/
FoamFile
{
    version     2.0;
    format      ascii;
    arch        "LSB;label=32;scalar=64";
    class       surfaceScalarField;
    location    "0.3";
    object      phi;
}
// * * * * * * * * * * * * * * * * * * * * * * * * * * * * * * * * * * * * * //

dimensions      [0 3 -1 0 0 0 0];

oriented        oriented;

internalField   nonuniform List<scalar> 
760
(
1.42339e-08
-1.42764e-08
-2.22368e-08
3.64708e-08
-1.14272e-07
9.20348e-08
-2.4548e-07
1.31208e-07
-3.96077e-07
1.50596e-07
-5.47339e-07
1.51262e-07
-6.83158e-07
1.3582e-07
-7.90626e-07
1.07468e-07
-8.60166e-07
6.95406e-08
-8.85598e-07
2.54316e-08
-8.64276e-07
-2.13218e-08
-7.97347e-07
-6.69295e-08
-6.90047e-07
-1.073e-07
-5.5194e-07
-1.38107e-07
-3.96918e-07
-1.55022e-07
-2.42733e-07
-1.54184e-07
-1.09736e-07
-1.32998e-07
-1.8444e-08
-9.12919e-08
1.57049e-08
-3.41489e-08
1.57049e-08
-3.42431e-08
1.99666e-08
-1.80382e-07
1.8261e-07
-4.33995e-07
3.45649e-07
-7.64416e-07
4.61629e-07
-1.13216e-06
5.18342e-07
-1.49716e-06
5.1626e-07
-1.82322e-06
4.61882e-07
-2.08039e-06
3.6464e-07
-2.24612e-06
2.35262e-07
-2.30587e-06
8.51876e-08
-2.25373e-06
-7.34598e-08
-2.09289e-06
-2.27769e-07
-1.83613e-06
-3.64066e-07
-1.50594e-06
-4.68295e-07
-1.13402e-06
-5.26945e-07
-7.59495e-07
-5.28706e-07
-4.25402e-07
-4.6709e-07
-1.72697e-07
-3.43997e-07
-3.08393e-08
-1.76007e-07
-1.51344e-08
-9.2201e-08
1.12168e-07
-3.56975e-07
4.47384e-07
-7.64527e-07
7.532e-07
-1.26843e-06
9.65531e-07
-1.8146e-06
1.06452e-06
-2.34891e-06
1.05057e-06
-2.82227e-06
9.35235e-07
-3.19375e-06
7.36119e-07
-3.43239e-06
4.73908e-07
-3.51828e-06
1.7108e-07
-3.44334e-06
-1.48399e-07
-3.21204e-06
-4.59073e-07
-2.84191e-06
-7.34194e-07
-2.36364e-06
-9.46564e-07
-1.8202e-06
-1.07039e-06
-1.26441e-06
-1.08449e-06
-7.5448e-07
-9.77021e-07
-3.46944e-07
-7.51533e-07
-8.73072e-08
-4.35643e-07
-1.02442e-07
-1.4519e-07
2.57357e-07
-5.25424e-07
8.27618e-07
-1.08157e-06
1.30934e-06
-1.74741e-06
1.63137e-06
-2.45418e-06
1.77129e-06
-3.13618e-06
1.73257e-06
-3.73506e-06
1.53411e-06
-4.20264e-06
1.2037e-06
-4.50263e-06
7.73896e-07
-4.61163e-06
2.80076e-07
-4.51996e-06
-2.4007e-07
-4.23245e-06
-7.46585e-07
-3.7691e-06
-1.19754e-06
-3.16541e-06
-1.55026e-06
-2.4717e-06
-1.76411e-06
-1.75094e-06
-1.80525e-06
-1.07443e-06
-1.65353e-06
-5.15093e-07
-1.31087e-06
-1.39291e-07
-8.11445e-07
-2.41733e-07
-1.93592e-07
4.50949e-07
-6.84953e-07
1.31898e-06
-1.38553e-06
2.00992e-06
-2.2071e-06
2.45294e-06
-3.06527e-06
2.62946e-06
-3.88353e-06
2.55083e-06
-4.59621e-06
2.24679e-06
-5.15025e-06
1.75774e-06
-5.50608e-06
1.12973e-06
-5.63814e-06
4.12135e-07
-5.53537e-06
-3.42842e-07
-5.202e-06
-1.07996e-06
-4.65853e-06
-1.741e-06
-3.94265e-06
-2.26614e-06
-3.10945e-06
-2.5973e-06
-2.23031e-06
-2.68439e-06
-1.38952e-06
-2.49433e-06
-6.78438e-07
-2.02195e-06
-1.87745e-07
-1.30214e-06
-4.29478e-07
-2.3992e-07
6.9087e-07
-8.40288e-07
1.91935e-06
-1.68317e-06
2.8528e-06
-2.65687e-06
3.42664e-06
-3.66059e-06
3.63318e-06
-4.60746e-06
3.4977e-06
-5.426e-06
3.06533e-06
-6.06018e-06
2.39192e-06
-6.46893e-06
1.53849e-06
-6.62561e-06
5.68811e-07
-6.51787e-06
-4.50582e-07
-6.14836e-06
-1.44947e-06
-5.53612e-06
-2.35324e-06
-4.71854e-06
-3.08371e-06
-3.75314e-06
-3.56271e-06
-2.71824e-06
-3.71929e-06
-1.71138e-06
-3.50118e-06
-8.44581e-07
-2.88875e-06
-2.36151e-07
-1.91057e-06
-6.65628e-07
-2.86719e-07
9.77589e-07
-9.97009e-07
2.62964e-06
-1.98194e-06
3.83773e-06
-3.10473e-06
4.54943e-06
-4.24767e-06
4.77612e-06
-5.31447e-06
4.56451e-06
-6.22972e-06
3.98057e-06
-6.93673e-06
3.09894e-06
-7.39502e-06
1.99677e-06
-7.57813e-06
7.51924e-07
-7.47266e-06
-5.56056e-07
-7.07861e-06
-1.84352e-06
-6.41139e-06
-3.02045e-06
-5.50513e-06
-3.98998e-06
-4.41667e-06
-4.65117e-06
-3.22907e-06
-4.9069e-06
-2.05275e-06
-4.6775e-06
-1.02243e-06
-3.91907e-06
-2.88242e-07
-2.64475e-06
-9.5387e-07
-3.36295e-07
1.31388e-06
-1.16027e-06
3.45361e-06
-2.28784e-06
4.9653e-06
-3.55473e-06
5.81633e-06
-4.82629e-06
6.04767e-06
-5.99867e-06
5.73689e-06
-6.99559e-06
4.97749e-06
-7.76304e-06
3.86639e-06
-8.26398e-06
2.4977e-06
-8.47408e-06
9.62026e-07
-8.37941e-06
-6.50728e-07
-7.97633e-06
-2.24659e-06
-7.27402e-06
-3.72277e-06
-6.29942e-06
-4.96457e-06
-5.1042e-06
-5.84639e-06
-3.77214e-06
-6.23895e-06
-2.42461e-06
-6.02503e-06
-1.2206e-06
-5.12309e-06
-3.4765e-07
-3.5177e-06
-1.30152e-06
-3.90907e-07
1.70479e-06
-1.33476e-06
4.39746e-06
-2.60475e-06
6.23529e-06
-4.00563e-06
7.21721e-06
-5.38643e-06
7.42847e-06
-6.63932e-06
6.98978e-06
-7.69196e-06
6.03014e-06
-8.49797e-06
4.67239e-06
-9.02789e-06
3.02763e-06
-9.26236e-06
1.19651e-06
-9.18806e-06
-7.25029e-07
-8.79687e-06
-2.63779e-06
-8.08874e-06
-4.4309e-06
-7.0784e-06
-5.97491e-06
-5.80575e-06
-7.11905e-06
-4.34855e-06
-7.69615e-06
-2.83445e-06
-7.53913e-06
-1.44688e-06
-6.51066e-06
-4.18015e-07
-4.54657e-06
-1.71954e-06
-4.53382e-07
2.15817e-06
-1.52551e-06
5.46959e-06
-2.9346e-06
7.64438e-06
-4.44974e-06
8.73235e-06
-5.90589e-06
8.88463e-06
-7.19735e-06
8.28124e-06
-8.26318e-06
7.09597e-06
-9.07158e-06
5.48079e-06
-9.60637e-06
3.56242e-06
-9.85707e-06
1.4472e-06
-9.81286e-06
-7.69237e-07
-9.46077e-06
-2.98987e-06
-8.78846e-06
-5.10321e-06
-7.79232e-06
-6.97104e-06
-6.49154e-06
-8.41983e-06
-4.94737e-06
-9.24032e-06
-3.28464e-06
-9.20186e-06
-1.70839e-06
-8.08691e-06
-5.03467e-07
-5.75148e-06
-2.223e-06
-5.28235e-07
2.68641e-06
-1.73942e-06
6.68078e-06
-3.27761e-06
9.18256e-06
-4.87117e-06
1.03259e-05
-6.34652e-06
1.036e-05
-7.61033e-06
9.54505e-06
-8.62387e-06
8.10952e-06
-9.37921e-06
6.23613e-06
-9.88051e-06
4.06372e-06
-1.0131e-05
1.69772e-06
-1.01252e-05
-7.75028e-07
-9.84573e-06
-3.26938e-06
-9.26532e-06
-5.68363e-06
-8.3556e-06
-7.88076e-06
-7.10393e-06
-9.6715e-06
-5.53997e-06
-1.08043e-05
-3.77009e-06
-1.09717e-05
-2.01177e-06
-9.84524e-06
-6.09521e-07
-7.15373e-06
-2.83252e-06
-6.23539e-07
3.30995e-06
-1.98708e-06
8.04432e-06
-3.63145e-06
1.08269e-05
-5.2414e-06
1.19359e-05
-6.64705e-06
1.17656e-05
-7.78399e-06
1.0682e-05
-8.65058e-06
8.9761e-06
-9.27391e-06
6.85946e-06
-9.68616e-06
4.47597e-06
-9.90943e-06
1.921e-06
-9.94681e-06
-7.37653e-07
-9.77808e-06
-3.4381e-06
-9.36029e-06
-6.10142e-06
-8.63491e-06
-8.60614e-06
-7.54559e-06
-1.07608e-05
-6.07076e-06
-1.22791e-05
-4.27353e-06
-1.2769e-05
-2.36313e-06
-1.17556e-05
-7.44567e-07
-8.7723e-06
-3.57709e-06
-7.53958e-07
4.0639e-06
-2.28399e-06
9.57435e-06
-3.98647e-06
1.25294e-05
-5.50853e-06
1.34579e-05
-6.7091e-06
1.29662e-05
-7.57814e-06
1.1551e-05
-8.16973e-06
9.56769e-06
-8.55738e-06
7.24711e-06
-8.80753e-06
4.72612e-06
-8.96486e-06
2.07833e-06
-9.04414e-06
-6.5837e-07
-9.02545e-06
-3.4568e-06
-8.85218e-06
-6.27469e-06
-8.43425e-06
-9.02406e-06
-7.66219e-06
-1.15329e-05
-6.44117e-06
-1.35001e-05
-4.75544e-06
-1.44547e-05
-2.76617e-06
-1.37449e-05
-9.22234e-07
-1.06162e-05
-4.49933e-06
-9.45243e-07
5.00915e-06
-2.64817e-06
1.12773e-05
-4.31044e-06
1.41917e-05
-5.57276e-06
1.47202e-05
-6.37026e-06
1.37637e-05
-6.78299e-06
1.19638e-05
-6.94033e-06
9.72503e-06
-6.96966e-06
7.27644e-06
-6.97276e-06
4.72922e-06
-7.01651e-06
2.12207e-06
-7.12859e-06
-5.46286e-07
-7.29368e-06
-3.29171e-06
-7.44845e-06
-6.11992e-06
-7.47755e-06
-8.99497e-06
-7.21742e-06
-1.1793e-05
-6.48207e-06
-1.42355e-05
-5.1327e-06
-1.58041e-05
-3.2145e-06
-1.56631e-05
-1.1644e-06
-1.26663e-05
-5.66372e-06
-1.23795e-06
6.2471e-06
-3.0833e-06
1.31226e-05
-4.5073e-06
1.56157e-05
-5.23411e-06
1.54471e-05
-5.35501e-06
1.38846e-05
-5.08179e-06
1.16905e-05
-4.63098e-06
9.27423e-06
-4.17945e-06
6.8249e-06
-3.85462e-06
4.40439e-06
-3.73732e-06
2.00477e-06
-3.86543e-06
-4.18171e-07
-4.23292e-06
-2.92422e-06
-4.78229e-06
-5.57055e-06
-5.39116e-06
-8.3861e-06
-5.85843e-06
-1.13257e-05
-5.90634e-06
-1.41876e-05
-5.23251e-06
-1.64779e-05
-3.66636e-06
-1.72293e-05
-1.50087e-06
-1.48318e-05
-7.16459e-06
-1.67613e-06
7.92322e-06
-3.51448e-06
1.4961e-05
-4.31542e-06
1.64166e-05
-4.08894e-06
1.52206e-05
-3.19326e-06
1.29889e-05
-1.99907e-06
1.04964e-05
-7.95582e-07
8.07074e-06
2.18812e-07
5.81051e-06
9.17648e-07
3.70556e-06
1.22497e-06
1.69745e-06
1.10139e-06
-2.9459e-07
5.40365e-07
-2.3632e-06
-4.23625e-07
-4.60656e-06
-1.69324e-06
-7.11648e-06
-3.07306e-06
-9.94593e-06
-4.23145e-06
-1.30292e-05
-4.69642e-06
-1.60129e-05
-3.96894e-06
-1.79567e-05
-1.94778e-06
-1.6853e-05
-9.11237e-06
-2.23816e-06
1.01614e-05
-3.59404e-06
1.63169e-05
-3.07887e-06
1.59015e-05
-1.34465e-06
1.34864e-05
8.96236e-07
1.0748e-05
3.15415e-06
8.23844e-06
5.13728e-06
6.08761e-06
6.68783e-06
4.25996e-06
7.72494e-06
2.66845e-06
8.20562e-06
1.21677e-06
8.10289e-06
-1.91858e-07
7.39796e-06
-1.65827e-06
6.0857e-06
-3.2943e-06
4.19791e-06
-5.22869e-06
1.85271e-06
-7.60073e-06
-6.63424e-07
-1.0513e-05
-2.79461e-06
-1.38817e-05
-3.66749e-06
-1.70839e-05
-2.42052e-06
-1.80999e-05
-1.15329e-05
-2.59898e-06
1.27604e-05
-2.18881e-06
1.59067e-05
7.16981e-07
1.29957e-05
4.46838e-06
9.73495e-06
8.13197e-06
7.08445e-06
1.13003e-05
5.07013e-06
1.38278e-05
3.56003e-06
1.56869e-05
2.4009e-06
1.68905e-05
1.46485e-06
1.74537e-05
6.5359e-07
1.73751e-05
-1.1327e-07
1.66291e-05
-9.12291e-07
1.51656e-05
-1.83083e-06
1.29218e-05
-2.98486e-06
9.85989e-06
-4.53881e-06
6.05995e-06
-6.7131e-06
1.90976e-06
-9.73155e-06
-1.56715e-06
-1.36069e-05
-2.48617e-06
-1.71809e-05
-1.40191e-05
-7.41231e-07
1.35016e-05
4.0892e-06
1.10763e-05
1.02979e-05
6.78697e-06
1.57927e-05
4.24017e-06
2.01566e-05
2.72048e-06
2.34566e-05
1.77018e-06
2.58594e-05
1.1572e-06
2.75203e-05
7.40054e-07
2.85528e-05
4.3228e-07
2.90252e-05
1.81226e-07
2.8961e-05
-4.90342e-08
2.83374e-05
-2.88698e-07
2.70803e-05
-5.73737e-07
2.50534e-05
-9.57956e-07
2.20502e-05
-1.53557e-06
1.78145e-05
-2.47746e-06
1.21728e-05
-4.08986e-06
5.48701e-06
-6.92112e-06
-8.11706e-08
-1.16128e-05
-1.41002e-05
1.35016e-05
2.45779e-05
3.13648e-05
3.5605e-05
3.83255e-05
4.00957e-05
4.12529e-05
4.19929e-05
4.24252e-05
4.26064e-05
4.25574e-05
4.22687e-05
4.1695e-05
4.0737e-05
3.92014e-05
3.6724e-05
3.26341e-05
2.5713e-05
1.41002e-05
)
;

boundaryField
{
    movingWall
    {
        type            calculated;
        value           uniform 0;
    }
    fixedWalls
    {
        type            calculated;
        value           uniform 0;
    }
    frontAndBack
    {
        type            empty;
    }
}


// ************************************************************************* //
