/*--------------------------------*- C++ -*----------------------------------*\
| =========                 |                                                 |
| \\      /  F ield         | OpenFOAM: The Open Source CFD Toolbox           |
|  \\    /   O peration     | Version:  2512                                  |
|   \\  /    A nd           | Website:  www.openfoam.com                      |
|    \\/     M anipulation  |                                                 |
\*---------------------------------------------------------------------------*/
FoamFile
{
    version     2.0;
    format      ascii;
    arch        "LSB;label=32;scalar=64";
    class       volVectorField;
    location    "0.3";
    object      U;
}
// * * * * * * * * * * * * * * * * * * * * * * * * * * * * * * * * * * * * * //

dimensions      [0 1 -1 0 0 0 0];

internalField   nonuniform List<vector> 
400
(
(0.000254241 -0.000250992 0)
(0.000142336 0.000110409 0)
(-0.00117671 0.000562621 0)
(-0.003481 0.000882482 0)
(-0.00637712 0.00104293 0)
(-0.00946896 0.00105894 0)
(-0.0124023 0.000955288 0)
(-0.0148843 0.000758375 0)
(-0.0166888 0.000493274 0)
(-0.0176575 0.000184012 0)
(-0.0177014 -0.000144943 0)
(-0.0168043 -0.000467194 0)
(-0.0150294 -0.000753504 0)
(-0.0125245 -0.000971808 0)
(-0.00952587 -0.00108845 0)
(-0.00635462 -0.00107128 0)
(-0.00340051 -0.000895663 0)
(-0.00108599 -0.000554494 0)
(0.000197585 -8.96103e-05 0)
(0.000268586 0.000262763 0)
(-7.60505e-05 -0.000170182 0)
(-0.00161018 0.00164386 0)
(-0.00569313 0.00361505 0)
(-0.0117189 0.00503193 0)
(-0.0188916 0.00574006 0)
(-0.0263994 0.00575703 0)
(-0.0334672 0.00516879 0)
(-0.0394244 0.00409019 0)
(-0.0437411 0.00264609 0)
(-0.0460441 0.000966296 0)
(-0.0461264 -0.00081288 0)
(-0.0439584 -0.00254578 0)
(-0.0396986 -0.00407651 0)
(-0.0337006 -0.00524234 0)
(-0.0265119 -0.00588345 0)
(-0.0188538 -0.00586171 0)
(-0.0115667 -0.00509188 0)
(-0.00551348 -0.00358726 0)
(-0.00149185 -0.00155849 0)
(-4.13317e-05 0.00022812 0)
(-0.000526227 0.00109127 0)
(-0.00370883 0.00573659 0)
(-0.0105887 0.010224 0)
(-0.0199912 0.0134068 0)
(-0.0307636 0.0149454 0)
(-0.0418204 0.0148379 0)
(-0.0521175 0.0132549 0)
(-0.0607413 0.0104556 0)
(-0.0669662 0.00674154 0)
(-0.0702792 0.00243864 0)
(-0.0703971 -0.00210653 0)
(-0.0672809 -0.0065252 0)
(-0.0611491 -0.0104287 0)
(-0.0524857 -0.0134203 0)
(-0.0420349 -0.0151226 0)
(-0.0307724 -0.0152246 0)
(-0.0198284 -0.013555 0)
(-0.0103632 -0.0101784 0)
(-0.00354601 -0.00555144 0)
(-0.000474553 -0.000948464 0)
(-0.000925003 0.00347947 0)
(-0.00568799 0.0122209 0)
(-0.0153013 0.019921 0)
(-0.0279159 0.0251965 0)
(-0.0419837 0.0275954 0)
(-0.0561767 0.0271359 0)
(-0.0692492 0.0241075 0)
(-0.0801223 0.0189527 0)
(-0.0879445 0.0121947 0)
(-0.0921148 0.00440462 0)
(-0.0922993 -0.00380798 0)
(-0.088446 -0.0117961 0)
(-0.080801 -0.0188812 0)
(-0.0699194 -0.0243749 0)
(-0.0566662 -0.0276259 0)
(-0.0421925 -0.0280999 0)
(-0.0278553 -0.0254961 0)
(-0.015093 -0.0198908 0)
(-0.00550152 -0.011928 0)
(-0.000858426 -0.0032245 0)
(-0.00127478 0.00687709 0)
(-0.00753157 0.0209535 0)
(-0.0198042 0.032509 0)
(-0.0355336 0.0401009 0)
(-0.0527412 0.0432877 0)
(-0.0698556 0.0421902 0)
(-0.0854599 0.0372752 0)
(-0.0983565 0.0292111 0)
(-0.107615 0.0187758 0)
(-0.112584 0.00681295 0)
(-0.112892 -0.00578044 0)
(-0.108469 -0.018054 0)
(-0.0995572 -0.0290099 0)
(-0.0867346 -0.0376305 0)
(-0.0709317 -0.0429422 0)
(-0.053427 -0.0441258 0)
(-0.0357826 -0.0406759 0)
(-0.0197341 -0.0325907 0)
(-0.00736596 -0.0205903 0)
(-0.00119948 -0.00649737 0)
(-0.00160233 0.0112146 0)
(-0.0093124 0.0318737 0)
(-0.0242083 0.0479494 0)
(-0.0430007 0.0580685 0)
(-0.0632538 0.0619332 0)
(-0.0831488 0.0598773 0)
(-0.101119 0.0526248 0)
(-0.115887 0.041123 0)
(-0.126482 0.026435 0)
(-0.132231 0.00969172 0)
(-0.132743 -0.00791647 0)
(-0.127916 -0.0251311 0)
(-0.117959 -0.0406228 0)
(-0.103427 -0.0530161 0)
(-0.085263 -0.060962 0)
(-0.0648307 -0.0632754 0)
(-0.0438824 -0.0591375 0)
(-0.024476 -0.0483411 0)
(-0.00924824 -0.0315563 0)
(-0.00153234 -0.0107272 0)
(-0.00193369 0.0164755 0)
(-0.0111142 0.0449723 0)
(-0.0286489 0.0662294 0)
(-0.0504769 0.0790542 0)
(-0.0736802 0.0834407 0)
(-0.0961979 0.0800688 0)
(-0.116345 0.0700196 0)
(-0.132807 0.0545809 0)
(-0.144623 0.0351288 0)
(-0.151132 0.013083 0)
(-0.15194 -0.0100868 0)
(-0.146906 -0.0328314 0)
(-0.136172 -0.0534969 0)
(-0.120214 -0.0703324 0)
(-0.0999243 -0.0815595 0)
(-0.0766945 -0.085526 0)
(-0.0524356 -0.080957 0)
(-0.0295423 -0.0672718 0)
(-0.0112757 -0.0449369 0)
(-0.0018932 -0.0159496 0)
(-0.00229235 0.0226926 0)
(-0.0130164 0.0602975 0)
(-0.0332486 0.0873577 0)
(-0.0580756 0.102989 0)
(-0.0840683 0.107658 0)
(-0.108946 0.102554 0)
(-0.130959 0.0892379 0)
(-0.148825 0.0694058 0)
(-0.161656 0.0447679 0)
(-0.168857 0.0170176 0)
(-0.170052 -0.0121341 0)
(-0.16506 -0.0408919 0)
(-0.153918 -0.067311 0)
(-0.136958 -0.0892677 0)
(-0.114932 -0.104505 0)
(-0.0891666 -0.110788 0)
(-0.0616643 -0.106203 0)
(-0.0351446 -0.0895716 0)
(-0.0135757 -0.060945 0)
(-0.00231767 -0.0222745 0)
(-0.00270239 0.0299437 0)
(-0.0150975 0.0779513 0)
(-0.0381116 0.111348 0)
(-0.0658431 0.12974 0)
(-0.094319 0.134307 0)
(-0.12109 0.126965 0)
(-0.144434 0.109894 0)
(-0.163202 0.0852756 0)
(-0.176676 0.0551625 0)
(-0.184394 0.0214841 0)
(-0.186045 -0.0138757 0)
(-0.181409 -0.0489554 0)
(-0.170381 -0.0815897 0)
(-0.153067 -0.109317 0)
(-0.129958 -0.129372 0)
(-0.102174 -0.138817 0)
(-0.0716811 -0.134875 0)
(-0.0414617 -0.115458 0)
(-0.016275 -0.0798884 0)
(-0.00284377 -0.029885 0)
(-0.00319648 0.0383548 0)
(-0.0174533 0.0980819 0)
(-0.043337 0.138178 0)
(-0.0737502 0.159033 0)
(-0.104151 0.162889 0)
(-0.132022 0.152662 0)
(-0.155815 0.131333 0)
(-0.174668 0.101633 0)
(-0.188157 0.0659524 0)
(-0.196056 0.0263861 0)
(-0.198174 -0.0151142 0)
(-0.194271 -0.0565446 0)
(-0.184068 -0.0956385 0)
(-0.167352 -0.129682 0)
(-0.144201 -0.155413 0)
(-0.115325 -0.169084 0)
(-0.0824353 -0.166787 0)
(-0.0486291 -0.145109 0)
(-0.019512 -0.10215 0)
(-0.00351975 -0.0390405 0)
(-0.00383036 0.0481221 0)
(-0.0202303 0.120883 0)
(-0.0490415 0.167738 0)
(-0.081679 0.190352 0)
(-0.113043 0.192544 0)
(-0.140736 0.178604 0)
(-0.163612 0.152503 0)
(-0.1813 0.117586 0)
(-0.193837 0.0765295 0)
(-0.201351 0.0314904 0)
(-0.203847 -0.0156611 0)
(-0.201098 -0.0630506 0)
(-0.192636 -0.108488 0)
(-0.177843 -0.149165 0)
(-0.156209 -0.181405 0)
(-0.127764 -0.200592 0)
(-0.0936315 -0.201406 0)
(-0.0567239 -0.178555 0)
(-0.0234583 -0.128158 0)
(-0.00441805 -0.0500948 0)
(-0.00470881 0.0595623 0)
(-0.0236752 0.146604 0)
(-0.0553766 0.19974 0)
(-0.0893678 0.222775 0)
(-0.120112 0.221879 0)
(-0.145666 0.203177 0)
(-0.165622 0.171832 0)
(-0.180364 0.131804 0)
(-0.190575 0.0859646 0)
(-0.196857 0.0363722 0)
(-0.199495 -0.0153736 0)
(-0.198328 -0.0677445 0)
(-0.192707 -0.118866 0)
(-0.181562 -0.166074 0)
(-0.16363 -0.205479 0)
(-0.13795 -0.231646 0)
(-0.104581 -0.237604 0)
(-0.0657222 -0.215501 0)
(-0.0283506 -0.158348 0)
(-0.00566017 -0.0635386 0)
(-0.00603194 0.0732168 0)
(-0.0282028 0.175546 0)
(-0.0625013 0.233551 0)
(-0.0962474 0.25473 0)
(-0.123846 0.248719 0)
(-0.144389 0.224017 0)
(-0.158664 0.1871 0)
(-0.168103 0.142457 0)
(-0.174198 0.0929643 0)
(-0.178116 0.0403749 0)
(-0.180482 -0.0142024 0)
(-0.181262 -0.0698243 0)
(-0.179689 -0.125212 0)
(-0.174261 -0.178178 0)
(-0.162882 -0.224967 0)
(-0.143301 -0.259574 0)
(-0.113922 -0.273307 0)
(-0.0753806 -0.255038 0)
(-0.0345241 -0.193063 0)
(-0.00745995 -0.0800862 0)
(-0.00817109 0.0900331 0)
(-0.0344589 0.207997 0)
(-0.0704053 0.26786 0)
(-0.101014 0.28359 0)
(-0.121565 0.269801 0)
(-0.133102 0.237834 0)
(-0.13816 0.1954 0)
(-0.139462 0.14723 0)
(-0.139369 0.0959058 0)
(-0.139597 0.0426156 0)
(-0.141112 -0.0122375 0)
(-0.144057 -0.0685119 0)
(-0.147668 -0.125798 0)
(-0.150166 -0.182771 0)
(-0.148713 -0.236322 0)
(-0.139632 -0.280436 0)
(-0.119082 -0.305004 0)
(-0.0849257 -0.295126 0)
(-0.0424079 -0.232342 0)
(-0.010188 -0.100816 0)
(-0.0117524 0.111626 0)
(-0.0432453 0.243931 0)
(-0.0782951 0.300007 0)
(-0.100621 0.305077 0)
(-0.108346 0.280453 0)
(-0.105729 0.240379 0)
(-0.0975311 0.19328 0)
(-0.0877751 0.143548 0)
(-0.0795071 0.0930339 0)
(-0.0747927 0.0420917 0)
(-0.0748108 -0.00973356 0)
(-0.0798984 -0.0632171 0)
(-0.0894694 -0.118997 0)
(-0.101793 -0.176962 0)
(-0.113687 -0.235286 0)
(-0.120302 -0.288876 0)
(-0.115259 -0.327177 0)
(-0.0922664 -0.331758 0)
(-0.0522978 -0.275359 0)
(-0.0144103 -0.12733 0)
(-0.0175608 0.140672 0)
(-0.0547873 0.2821 0)
(-0.082799 0.324683 0)
(-0.0880812 0.312461 0)
(-0.0751112 0.274453 0)
(-0.0525973 0.226771 0)
(-0.0274673 0.17729 0)
(-0.00452526 0.129136 0)
(0.0130866 0.0829124 0)
(0.0234265 0.0379446 0)
(0.0253842 -0.00707794 0)
(0.0184925 -0.0537649 0)
(0.00296479 -0.103759 0)
(-0.0200116 -0.158327 0)
(-0.0476997 -0.217506 0)
(-0.0749975 -0.278358 0)
(-0.0935601 -0.331775 0)
(-0.0920894 -0.357639 0)
(-0.0633139 -0.319233 0)
(-0.0206471 -0.161985 0)
(-0.0255492 0.181821 0)
(-0.0659041 0.317645 0)
(-0.0733703 0.33129 0)
(-0.0480886 0.29539 0)
(-0.00559433 0.244216 0)
(0.0412013 0.192387 0)
(0.0846359 0.145053 0)
(0.120519 0.102976 0)
(0.146684 0.0651399 0)
(0.162028 0.0298907 0)
(0.165921 -0.00467519 0)
(0.157914 -0.0406348 0)
(0.137709 -0.080255 0)
(0.105415 -0.125927 0)
(0.0622341 -0.179733 0)
(0.0117733 -0.24202 0)
(-0.0378641 -0.307857 0)
(-0.0717427 -0.360054 0)
(-0.0702255 -0.356461 0)
(-0.028032 -0.208509 0)
(-0.0300423 0.239604 0)
(-0.0612639 0.335432 0)
(-0.0219607 0.300336 0)
(0.0505461 0.240106 0)
(0.127544 0.182955 0)
(0.196978 0.135396 0)
(0.254311 0.0974056 0)
(0.298226 0.0668561 0)
(0.3288 0.041358 0)
(0.346443 0.0187788 0)
(0.351351 -0.00279653 0)
(0.343275 -0.0252696 0)
(0.321439 -0.0507938 0)
(0.28461 -0.0820542 0)
(0.231533 -0.122449 0)
(0.162138 -0.175662 0)
(0.0798851 -0.243387 0)
(-0.00323362 -0.318945 0)
(-0.0551854 -0.368269 0)
(-0.028919 -0.268118 0)
(0.00699026 0.282597 0)
(0.0187259 0.294806 0)
(0.139189 0.210807 0)
(0.26454 0.143401 0)
(0.364342 0.0971328 0)
(0.440328 0.0657338 0)
(0.496713 0.0442047 0)
(0.536847 0.0288633 0)
(0.563421 0.0171844 0)
(0.57828 0.00747731 0)
(0.582355 -0.00149493 0)
(0.575668 -0.0108395 0)
(0.557279 -0.0218331 0)
(0.525102 -0.0363098 0)
(0.475738 -0.0572196 0)
(0.404507 -0.0893249 0)
(0.305256 -0.139647 0)
(0.173559 -0.216208 0)
(0.0400264 -0.311517 0)
(0.01723 -0.300775 0)
(0.298507 0.146497 0)
(0.395135 0.127583 0)
(0.55744 0.0760431 0)
(0.674536 0.0436657 0)
(0.743874 0.025518 0)
(0.787141 0.0151963 0)
(0.81548 0.00917723 0)
(0.833951 0.00548483 0)
(0.845381 0.00301159 0)
(0.851367 0.00114154 0)
(0.852661 -0.000499633 0)
(0.849377 -0.00220823 0)
(0.840994 -0.00432331 0)
(0.826135 -0.00739823 0)
(0.802069 -0.0124937 0)
(0.763612 -0.0217205 0)
(0.69917 -0.0392185 0)
(0.584034 -0.0726054 0)
(0.414717 -0.127955 0)
(0.307688 -0.149859 0)
)
;

boundaryField
{
    movingWall
    {
        type            fixedValue;
        value           uniform (1 0 0);
    }
    fixedWalls
    {
        type            noSlip;
    }
    frontAndBack
    {
        type            empty;
    }
}


// ************************************************************************* //
